      -----------------------------------------------------------      
     |                   =====================                   |     
     |                           x T B                           |     
     |                   =====================                   |     
     |                         S. Grimme                         |     
     |          Mulliken Center for Theoretical Chemistry        |     
     |                    University of Bonn                     |     
      -----------------------------------------------------------      

   * xtb version 6.6.1 (8d0f1dd) compiled by 'stahn@M-Bot' on 2023-08-01

   xtb is free software: you can redistribute it and/or modify it under
   the terms of the GNU Lesser General Public License as published by
   the Free Software Foundation, either version 3 of the License, or
   (at your option) any later version.
   
   xtb is distributed in the hope that it will be useful,
   but WITHOUT ANY WARRANTY; without even the implied warranty of
   MERCHANTABILITY or FITNESS FOR A PARTICULAR PURPOSE.  See the
   GNU Lesser General Public License for more details.
   
   Cite this work as:
   * C. Bannwarth, E. Caldeweyher, S. Ehlert, A. Hansen, P. Pracht,
     J. Seibert, S. Spicher, S. Grimme, WIREs Comput. Mol. Sci., 2020, 11,
     e01493. DOI: 10.1002/wcms.1493
   
   for GFN2-xTB:
   * C. Bannwarth, S. Ehlert and S. Grimme., J. Chem. Theory Comput., 2019,
     15, 1652-1671. DOI: 10.1021/acs.jctc.8b01176
   for GFN1-xTB:
   * S. Grimme, C. Bannwarth, P. Shushkov, J. Chem. Theory Comput., 2017,
     13, 1989-2009. DOI: 10.1021/acs.jctc.7b00118
   for GFN0-xTB:
   * P. Pracht, E. Caldeweyher, S. Ehlert, S. Grimme, ChemRxiv, 2019, preprint.
     DOI: 10.26434/chemrxiv.8326202.v1
   for GFN-FF:
   * S. Spicher and S. Grimme, Angew. Chem. Int. Ed., 2020, 59, 15665-15673.
     DOI: 10.1002/anie.202004239
   
   for ALPB and GBSA implicit solvation:
   * S. Ehlert, M. Stahn, S. Spicher, S. Grimme, J. Chem. Theory Comput.,
     2021, 17, 4250-4261. DOI: 10.1021/acs.jctc.1c00471
   
   for DFT-D4:
   * E. Caldeweyher, C. Bannwarth and S. Grimme, J. Chem. Phys., 2017,
     147, 034112. DOI: 10.1063/1.4993215
   * E. Caldeweyher, S. Ehlert, A. Hansen, H. Neugebauer, S. Spicher,
     C. Bannwarth and S. Grimme, J. Chem. Phys., 2019, 150, 154122.
     DOI: 10.1063/1.5090222
   * E. Caldeweyher, J.-M. Mewes, S. Ehlert and S. Grimme, Phys. Chem. Chem. Phys.
     2020, 22, 8499-8512. DOI: 10.1039/D0CP00502A
   
   for sTDA-xTB:
   * S. Grimme and C. Bannwarth, J. Chem. Phys., 2016, 145, 054103.
     DOI: 10.1063/1.4959605
   
   in the mass-spec context:
   * V. Asgeirsson, C. Bauer and S. Grimme, Chem. Sci., 2017, 8, 4879.
     DOI: 10.1039/c7sc00601b
   * J. Koopman and S. Grimme, ACS Omega 2019, 4, 12, 15120-15133.
     DOI: 10.1021/acsomega.9b02011
   
   for metadynamics refer to:
   * S. Grimme, J. Chem. Theory Comput., 2019, 155, 2847-2862
     DOI: 10.1021/acs.jctc.9b00143
   
   for SPH calculations refer to:
   * S. Spicher and S. Grimme, J. Chem. Theory Comput., 2021, 17, 1701-1714
     DOI: 10.1021/acs.jctc.0c01306
   
   with help from (in alphabetical order)
   P. Atkinson, C. Bannwarth, F. Bohle, G. Brandenburg, E. Caldeweyher
   M. Checinski, S. Dohm, S. Ehlert, S. Ehrlich, I. Gerasimov, C. Hölzer
   A. Katbashev, J. Koopman, C. Lavigne, S. Lehtola, F. März, M. Müller,
   F. Musil, H. Neugebauer, J. Pisarek, C. Plett, P. Pracht, F. Pultar,
   J. Seibert, P. Shushkov, S. Spicher, M. Stahn, M. Steiner, T. Strunk,
   J. Stückrath, T. Rose, and J. Unsleber
   
 * started run on 2024/06/15 at 05:54:36.941     

           -------------------------------------------------
          |                Calculation Setup                |
           -------------------------------------------------

          program call               : /home/jurichc/xtb-6.6.1/bin/xtb --chrg 0 --iterations 1000 --parallel 1 --norestart --input /panfs/accrepfs.vampire/data/yang_lab/jurichc/enzy_rcd_benchmarking/enzy_rcd_no_qm/8brb/QM_OPT/xtb_settings.inp --opt normal /panfs/accrepfs.vampire/data/yang_lab/jurichc/enzy_rcd_benchmarking/enzy_rcd_no_qm/8brb/QM_OPT/xtb_coords.mol
          hostname                   : cn1603
          coordinate file            : /panfs/accrepfs.vampire/data/yang_lab/jurichc/enzy_rcd_benchmarking/enzy_rcd_no_qm/8brb/QM_OPT/xtb_coords.mol
          omp threads                :                     1

   ID    Z sym.   atoms
    1    7 N      1, 21, 31, 48, 56, 72, 91, 97, 100, 156, 162, 168, 174, 180
    2    6 C      2, 3, 5-11, 22, 23, 25, 32, 33, 35, 36, 38, 49, 50, 52-55,
                  57-61, 73, 74, 76-79, 92, 93, 95, 96, 98, 99, 108-115, 126,
                  128, 132, 134, 138, 140, 144, 146, 150, 152, 158, 164, 170,
                  176, 182
    3    8 O      4, 24, 34, 51, 75, 94, 116-119, 127, 133, 139, 145, 151
    4    1 H      12-20, 26-30, 39-47, 62-71, 80-90, 101-107, 120-125,
                  129-131, 135-137, 141-143, 147-149, 153-155, 157, 159-161,
                  163, 165-167, 169, 171-173, 175, 177-179, 181, 183-185
    5   16 S      37
constraining bond 100 118 to    2.8000000 Å, actual value:    3.0499806 Å
constraining angle 98 100 118 to  118.1000000°, actual value:  121.5382672°
constraining angle 115 118 100 to  125.4000000°, actual value:  111.7059769°
constraining bond 12 1 to    0.8600000 Å, actual value:    0.8595220 Å
constraining bond 13 2 to    1.0900000 Å, actual value:    1.0901895 Å
constraining bond 14 5 to    1.0890000 Å, actual value:    1.0885648 Å
constraining bond 15 5 to    1.0890000 Å, actual value:    1.0892191 Å
constraining bond 16 7 to    1.0900000 Å, actual value:    1.0904023 Å
constraining bond 17 8 to    1.0910000 Å, actual value:    1.0912292 Å
constraining bond 18 9 to    1.0890000 Å, actual value:    1.0891695 Å
constraining bond 19 10 to    1.0900000 Å, actual value:    1.0900295 Å
constraining bond 20 11 to    1.0890000 Å, actual value:    1.0889285 Å
constraining bond 26 21 to    0.8600000 Å, actual value:    0.8598861 Å
constraining bond 27 22 to    1.0900000 Å, actual value:    1.0900914 Å
constraining bond 28 25 to    0.9700000 Å, actual value:    0.9696810 Å
constraining bond 29 25 to    0.9690000 Å, actual value:    0.9694773 Å
constraining bond 30 25 to    0.9700000 Å, actual value:    0.9696696 Å
constraining bond 39 31 to    0.8600000 Å, actual value:    0.8604244 Å
constraining bond 40 32 to    1.0890000 Å, actual value:    1.0892044 Å
constraining bond 41 35 to    1.0890000 Å, actual value:    1.0888624 Å
constraining bond 42 35 to    1.0910000 Å, actual value:    1.0908823 Å
constraining bond 43 36 to    1.0890000 Å, actual value:    1.0891287 Å
constraining bond 44 36 to    1.0890000 Å, actual value:    1.0892062 Å
constraining bond 45 38 to    1.0910000 Å, actual value:    1.0906412 Å
constraining bond 46 38 to    1.0910000 Å, actual value:    1.0905211 Å
constraining bond 47 38 to    1.0910000 Å, actual value:    1.0905866 Å
constraining bond 62 48 to    0.8600000 Å, actual value:    0.8595476 Å
constraining bond 63 49 to    1.0890000 Å, actual value:    1.0891966 Å
constraining bond 64 52 to    1.0910000 Å, actual value:    1.0910853 Å
constraining bond 65 52 to    1.0890000 Å, actual value:    1.0892939 Å
constraining bond 66 54 to    1.0880000 Å, actual value:    1.0884789 Å
constraining bond 67 56 to    1.0100000 Å, actual value:    1.0095678 Å
constraining bond 68 58 to    1.0890000 Å, actual value:    1.0889372 Å
constraining bond 69 59 to    1.0900000 Å, actual value:    1.0899019 Å
constraining bond 70 60 to    1.0900000 Å, actual value:    1.0900157 Å
constraining bond 71 61 to    1.0910000 Å, actual value:    1.0907654 Å
constraining bond 80 72 to    0.8610000 Å, actual value:    0.8612236 Å
constraining bond 81 73 to    1.0900000 Å, actual value:    1.0896578 Å
constraining bond 82 76 to    1.0900000 Å, actual value:    1.0897386 Å
constraining bond 83 77 to    1.0890000 Å, actual value:    1.0889693 Å
constraining bond 84 77 to    1.0900000 Å, actual value:    1.0899111 Å
constraining bond 85 78 to    1.0890000 Å, actual value:    1.0892852 Å
constraining bond 86 78 to    1.0890000 Å, actual value:    1.0893646 Å
constraining bond 87 78 to    1.0900000 Å, actual value:    1.0902134 Å
constraining bond 88 79 to    1.0910000 Å, actual value:    1.0907384 Å
constraining bond 89 79 to    1.0910000 Å, actual value:    1.0912439 Å
constraining bond 90 79 to    1.0890000 Å, actual value:    1.0887815 Å
constraining bond 101 91 to    0.8610000 Å, actual value:    0.8606440 Å
constraining bond 102 92 to    1.0890000 Å, actual value:    1.0889606 Å
constraining bond 103 95 to    1.0900000 Å, actual value:    1.0900065 Å
constraining bond 104 95 to    1.0900000 Å, actual value:    1.0900657 Å
constraining bond 105 97 to    1.0000000 Å, actual value:    0.9998446 Å
constraining bond 106 98 to    1.0900000 Å, actual value:    1.0904518 Å
constraining bond 107 99 to    1.0900000 Å, actual value:    1.0895670 Å
constraining bond 120 108 to    1.0790000 Å, actual value:    1.0793522 Å
constraining bond 121 109 to    1.0790000 Å, actual value:    1.0790543 Å
constraining bond 122 111 to    1.0800000 Å, actual value:    1.0795278 Å
constraining bond 123 112 to    1.0810000 Å, actual value:    1.0805731 Å
constraining bond 124 117 to    0.9660000 Å, actual value:    0.9663365 Å
constraining bond 125 118 to    0.9670000 Å, actual value:    0.9666334 Å
constraining bond 129 128 to    1.0910000 Å, actual value:    1.0914331 Å
constraining bond 130 128 to    1.0900000 Å, actual value:    1.0901606 Å
constraining bond 131 128 to    1.0900000 Å, actual value:    1.0901047 Å
constraining bond 135 134 to    1.0910000 Å, actual value:    1.0902083 Å
constraining bond 136 134 to    1.0900000 Å, actual value:    1.0912755 Å
constraining bond 137 134 to    1.0900000 Å, actual value:    1.0908837 Å
constraining bond 141 140 to    1.0910000 Å, actual value:    1.0907879 Å
constraining bond 142 140 to    1.0900000 Å, actual value:    1.0910973 Å
constraining bond 143 140 to    1.0900000 Å, actual value:    1.0896230 Å
constraining bond 147 146 to    1.0910000 Å, actual value:    1.0908617 Å
constraining bond 148 146 to    1.0900000 Å, actual value:    1.0902418 Å
constraining bond 149 146 to    1.0900000 Å, actual value:    1.0901258 Å
constraining bond 153 152 to    1.0910000 Å, actual value:    1.0902652 Å
constraining bond 154 152 to    1.0900000 Å, actual value:    1.0905536 Å
constraining bond 155 152 to    1.0900000 Å, actual value:    1.0898565 Å
constraining bond 157 156 to    0.8590000 Å, actual value:    0.8592852 Å
constraining bond 159 158 to    1.0900000 Å, actual value:    1.0889363 Å
constraining bond 160 158 to    1.0900000 Å, actual value:    1.0898859 Å
constraining bond 161 158 to    1.0900000 Å, actual value:    1.0906536 Å
constraining bond 163 162 to    0.8600000 Å, actual value:    0.8601785 Å
constraining bond 165 164 to    1.0900000 Å, actual value:    1.0892659 Å
constraining bond 166 164 to    1.0900000 Å, actual value:    1.0898634 Å
constraining bond 167 164 to    1.0900000 Å, actual value:    1.0898322 Å
constraining bond 169 168 to    0.8600000 Å, actual value:    0.8599937 Å
constraining bond 171 170 to    1.0900000 Å, actual value:    1.0897992 Å
constraining bond 172 170 to    1.0900000 Å, actual value:    1.0894541 Å
constraining bond 173 170 to    1.0900000 Å, actual value:    1.0894100 Å
constraining bond 175 174 to    0.8610000 Å, actual value:    0.8607184 Å
constraining bond 177 176 to    1.0900000 Å, actual value:    1.0896739 Å
constraining bond 178 176 to    1.0900000 Å, actual value:    1.0894830 Å
constraining bond 179 176 to    1.0900000 Å, actual value:    1.0903881 Å
constraining bond 181 180 to    0.8600000 Å, actual value:    0.8596919 Å
constraining bond 183 182 to    1.0900000 Å, actual value:    1.0893990 Å
constraining bond 184 182 to    1.0900000 Å, actual value:    1.0900267 Å
constraining bond 185 182 to    1.0900000 Å, actual value:    1.0904335 Å

molecular fragmentation (1/2 indicates fragments):
111111111111111111112222222222222222222222222222222222222222222222222222
222222222222222222222222222222222222222222222222222221111112222222222222
22222222222111111222222222222222222222222
# atoms in fragment 1/2:    32   153
 fragment masses (1/2) :      220.27     1097.29
CMA distance (Bohr)    :  14.449
constraining FC (au)   :  0.0500

           -------------------------------------------------
          |                 G F N 2 - x T B                 |
           -------------------------------------------------

        Reference                      10.1021/acs.jctc.8b01176
      * Hamiltonian:
        H0-scaling (s, p, d)           1.850000    2.230000    2.230000
        zeta-weighting                 0.500000
      * Dispersion:
        s8                             2.700000
        a1                             0.520000
        a2                             5.000000
        s9                             5.000000
      * Repulsion:
        kExp                           1.500000    1.000000
        rExp                           1.000000
      * Coulomb:
        alpha                          2.000000
        third order                    shell-resolved
        anisotropic                    true
        a3                             3.000000
        a5                             4.000000
        cn-shift                       1.200000
        cn-exp                         4.000000
        max-rad                        5.000000


          ...................................................
          :                      SETUP                      :
          :.................................................:
          :  # basis functions                 470          :
          :  # atomic orbitals                 469          :
          :  # shells                          279          :
          :  # electrons                       510          :
          :  max. iterations                  1000          :
          :  Hamiltonian                  GFN2-xTB          :
          :  restarted?                      false          :
          :  GBSA solvation                  false          :
          :  PC potential                    false          :
          :  electronic temp.          300.0000000     K    :
          :  accuracy                    1.0000000          :
          :  -> integral cutoff          0.2500000E+02      :
          :  -> integral neglect         0.1000000E-07      :
          :  -> SCF convergence          0.1000000E-05 Eh   :
          :  -> wf. convergence          0.1000000E-03 e    :
          :  Broyden damping             0.4000000          :
          ...................................................

 iter      E             dE          RMSdq      gap      omega  full diag
   1   -290.1090000 -0.290109E+03  0.431E+00    2.49       0.0  T
   2   -291.1188222 -0.100982E+01  0.239E+00    1.66       1.0  T
   3   -291.1655493 -0.467271E-01  0.132E+00    1.55       1.0  T
   4   -291.1587422  0.680716E-02  0.388E-01    1.03       1.0  T
   5   -291.1809990 -0.222568E-01  0.127E-01    1.10       1.0  T
   6   -291.1816136 -0.614578E-03  0.699E-02    1.13       1.0  T
   7   -291.1819547 -0.341085E-03  0.285E-02    1.15       1.0  T
   8   -291.1819724 -0.176880E-04  0.133E-02    1.16       1.0  T
   9   -291.1819866 -0.142167E-04  0.555E-03    1.16       1.3  T
  10   -291.1819877 -0.110450E-05  0.199E-03    1.16       3.7  T
  11   -291.1819878 -0.127816E-06  0.931E-04    1.16       7.9  T
  12   -291.1819879 -0.391867E-07  0.405E-04    1.16      18.2  T

   *** convergence criteria satisfied after 12 iterations ***

         #    Occupation            Energy/Eh            Energy/eV
      -------------------------------------------------------------
         1        2.0000           -0.7558280             -20.5671
       ...           ...                  ...                  ...
       249        2.0000           -0.3844818             -10.4623
       250        2.0000           -0.3715515             -10.1104
       251        2.0000           -0.3676258             -10.0036
       252        2.0000           -0.3639254              -9.9029
       253        2.0000           -0.3638398              -9.9006
       254        2.0000           -0.3611340              -9.8270
       255        2.0000           -0.3459991              -9.4151 (HOMO)
       256                         -0.3034407              -8.2570 (LUMO)
       257                         -0.2768754              -7.5342
       258                         -0.2641639              -7.1883
       259                         -0.2567034              -6.9853
       260                         -0.2506224              -6.8198
       ...                                ...                  ...
       469                          0.7294044              19.8481
      -------------------------------------------------------------
                  HL-Gap            0.0425584 Eh            1.1581 eV
             Fermi-level           -0.3247199 Eh           -8.8361 eV

 SCC (total)                   0 d,  0 h,  0 min,  1.561 sec
 SCC setup                      ...        0 min,  0.076 sec (  4.863%)
 Dispersion                     ...        0 min,  0.008 sec (  0.529%)
 classical contributions        ...        0 min,  0.002 sec (  0.151%)
 integral evaluation            ...        0 min,  0.090 sec (  5.752%)
 iterations                     ...        0 min,  0.991 sec ( 63.509%)
 molecular gradient             ...        0 min,  0.383 sec ( 24.537%)
 printout                       ...        0 min,  0.010 sec (  0.655%)

         :::::::::::::::::::::::::::::::::::::::::::::::::::::
         ::                     SUMMARY                     ::
         :::::::::::::::::::::::::::::::::::::::::::::::::::::
         :: total energy            -286.774604148334 Eh    ::
         :: gradient norm              1.040808187482 Eh/a0 ::
         :: HOMO-LUMO gap              1.158072753978 eV    ::
         ::.................................................::
         :: SCC energy              -291.181987864835 Eh    ::
         :: -> isotropic ES            0.582548738293 Eh    ::
         :: -> anisotropic ES          0.025432111927 Eh    ::
         :: -> anisotropic XC          0.091630610423 Eh    ::
         :: -> dispersion             -0.238799767558 Eh    ::
         :: repulsion energy           4.375510011303 Eh    ::
         :: add. restraining           0.014196712120 Eh    ::
         :: total charge              -0.000000000000 e     ::
         :::::::::::::::::::::::::::::::::::::::::::::::::::::

      ----------------------------------------------------------- 
     |                   =====================                   |
     |                        A N C O P T                        |
     |                   =====================                   |
     |               Approximate Normal Coordinate               |
     |                Rational Function Optimizer                |
      ----------------------------------------------------------- 

          ...................................................
          :                      SETUP                      :
          :.................................................:
          :   optimization level            normal          :
          :   max. optcycles                   555          :
          :   ANC micro-cycles                  20          :
          :   degrees of freedom               498          :
          :.................................................:
          :   RF solver                   davidson          :
          :   write xtbopt.log                true          :
          :   linear?                        false          :
          :   energy convergence         0.5000000E-05 Eh   :
          :   grad. convergence          0.1000000E-02 Eh/α :
          :   maxmium RF displ.          1.0000000          :
          :   Hlow (freq-cutoff)         0.1000000E-01      :
          :   Hmax (freq-cutoff)         5.0000000          :
          :   S6 in model hess.         20.0000000          :
          ...................................................

generating ANC from model Hessian ...
Using Lindh-Hessian (1995)
 Shifting diagonal of input Hessian by   9.883926236723170E-003
 Lowest  eigenvalues of input Hessian
   -0.000000   -0.000000   -0.000000   -0.000000   -0.000000   -0.000000
   -0.000000   -0.000000   -0.000000   -0.000000   -0.000000   -0.000000
   -0.000000   -0.000000   -0.000000   -0.000000   -0.000000   -0.000000
 Highest eigenvalues
    2.293465    2.297938    2.299584    2.302490    2.306360    2.314554
 

........................................................................
.............................. CYCLE    1 ..............................
........................................................................

 iter      E             dE          RMSdq      gap      omega  full diag
   1   -291.1819879 -0.291182E+03  0.157E-04    1.16       0.0  T
   2   -291.1819879 -0.644206E-09  0.100E-04    1.16      73.5  T
   3   -291.1819879 -0.146656E-09  0.689E-05    1.16     106.7  T
     SCC iter.                  ...        0 min,  0.214 sec
     gradient                   ...        0 min,  0.382 sec
 * total energy  :  -286.7746042 Eh     change       -0.7001290E-08 Eh
   gradient norm :     0.9076048 Eh/α   predicted     0.0000000E+00 (-100.00%)
   displ. norm   :     0.5569998 α      lambda       -0.4636526E+00
   maximum displ.:     0.2205033 α      in ANC's #384, #382, #385, ...

........................................................................
.............................. CYCLE    2 ..............................
........................................................................

 iter      E             dE          RMSdq      gap      omega  full diag
   1   -291.0776106 -0.291078E+03  0.205E-01    1.22       0.0  T
   2   -291.0785943 -0.983698E-03  0.123E-01    1.21       1.0  T
   3   -291.0786250 -0.307232E-04  0.509E-02    1.20       1.0  T
   4   -291.0786905 -0.654856E-04  0.129E-02    1.20       1.0  T
   5   -291.0787053 -0.147629E-04  0.611E-03    1.20       1.2  T
   6   -291.0787070 -0.172597E-05  0.312E-03    1.20       2.4  T
   7   -291.0787078 -0.803146E-06  0.101E-03    1.20       7.2  T
   8   -291.0787078 -0.267698E-07  0.472E-04    1.20      15.6  T
   9   -291.0787079 -0.224187E-07  0.172E-04    1.20      42.8  T
     SCC iter.                  ...        0 min,  0.597 sec
     gradient                   ...        0 min,  0.374 sec
 * total energy  :  -287.0566684 Eh     change       -0.2820642E+00 Eh
   gradient norm :     0.2511817 Eh/α   predicted    -0.3037620E+00 (   7.69%)
   displ. norm   :     0.4765288 α      lambda       -0.8411486E-01
   maximum displ.:     0.1104980 α      in ANC's #125, #216, #217, ...

........................................................................
.............................. CYCLE    3 ..............................
........................................................................

 iter      E             dE          RMSdq      gap      omega  full diag
   1   -291.0265826 -0.291027E+03  0.148E-01    1.27       0.0  T
   2   -291.0275935 -0.101090E-02  0.936E-02    1.27       1.0  T
   3   -291.0276595 -0.660583E-04  0.467E-02    1.27       1.0  T
   4   -291.0276677 -0.813714E-05  0.101E-02    1.26       1.0  T
   5   -291.0276789 -0.112065E-04  0.392E-03    1.26       1.9  T
   6   -291.0276795 -0.640602E-06  0.198E-03    1.26       3.7  T
   7   -291.0276799 -0.335054E-06  0.720E-04    1.26      10.2  T
   8   -291.0276799 -0.645605E-08  0.374E-04    1.26      19.7  T
     SCC iter.                  ...        0 min,  0.526 sec
     gradient                   ...        0 min,  0.383 sec
 * total energy  :  -287.1168564 Eh     change       -0.6018795E-01 Eh
   gradient norm :     0.0945184 Eh/α   predicted    -0.5164397E-01 ( -14.20%)
   displ. norm   :     0.4984541 α      lambda       -0.3237225E-01
   maximum displ.:     0.1202758 α      in ANC's #125, #216, #114, ...

........................................................................
.............................. CYCLE    4 ..............................
........................................................................

 iter      E             dE          RMSdq      gap      omega  full diag
   1   -290.9880717 -0.290988E+03  0.123E-01    1.32       0.0  T
   2   -290.9887616 -0.689876E-03  0.772E-02    1.32       1.0  T
   3   -290.9888058 -0.442056E-04  0.387E-02    1.33       1.0  T
   4   -290.9888095 -0.371139E-05  0.891E-03    1.32       1.0  T
   5   -290.9888197 -0.102202E-04  0.309E-03    1.32       2.4  T
   6   -290.9888201 -0.417209E-06  0.159E-03    1.32       4.6  T
   7   -290.9888203 -0.146108E-06  0.577E-04    1.32      12.7  T
   8   -290.9888203 -0.337627E-08  0.296E-04    1.32      24.8  T
     SCC iter.                  ...        0 min,  0.534 sec
     gradient                   ...        0 min,  0.377 sec
 * total energy  :  -287.1388713 Eh     change       -0.2201494E-01 Eh
   gradient norm :     0.0352472 Eh/α   predicted    -0.2020769E-01 (  -8.21%)
   displ. norm   :     0.4743685 α      lambda       -0.1066520E-01
   maximum displ.:     0.1001177 α      in ANC's #76, #104, #51, ...

........................................................................
.............................. CYCLE    5 ..............................
........................................................................

 iter      E             dE          RMSdq      gap      omega  full diag
   1   -290.9727075 -0.290973E+03  0.937E-02    1.35       0.0  T
   2   -290.9729079 -0.200426E-03  0.554E-02    1.36       1.0  T
   3   -290.9729126 -0.473085E-05  0.223E-02    1.36       1.0  T
   4   -290.9729233 -0.106455E-04  0.512E-03    1.36       1.4  T
   5   -290.9729260 -0.273446E-05  0.227E-03    1.36       3.2  T
   6   -290.9729263 -0.268059E-06  0.115E-03    1.36       6.4  T
   7   -290.9729264 -0.638516E-07  0.427E-04    1.36      17.2  T
   8   -290.9729264 -0.865413E-08  0.187E-04    1.36      39.3  T
     SCC iter.                  ...        0 min,  0.518 sec
     gradient                   ...        0 min,  0.378 sec
 * total energy  :  -287.1464376 Eh     change       -0.7566271E-02 Eh
   gradient norm :     0.0331037 Eh/α   predicted    -0.6532669E-02 ( -13.66%)
   displ. norm   :     0.4885039 α      lambda       -0.5501397E-02
   maximum displ.:     0.1262232 α      in ANC's #23, #51, #17, ...

........................................................................
.............................. CYCLE    6 ..............................
........................................................................

 iter      E             dE          RMSdq      gap      omega  full diag
   1   -290.9715577 -0.290972E+03  0.808E-02    1.37       0.0  T
   2   -290.9716335 -0.757603E-04  0.463E-02    1.38       1.0  T
   3   -290.9716277  0.575302E-05  0.144E-02    1.38       1.0  T
   4   -290.9716389 -0.111584E-04  0.434E-03    1.38       1.7  T
   5   -290.9716413 -0.241590E-05  0.182E-03    1.38       4.0  T
   6   -290.9716415 -0.222568E-06  0.805E-04    1.38       9.1  T
   7   -290.9716415 -0.228733E-07  0.320E-04    1.38      23.0  T
     SCC iter.                  ...        0 min,  0.456 sec
     gradient                   ...        0 min,  0.377 sec
 * total energy  :  -287.1506432 Eh     change       -0.4205650E-02 Eh
   gradient norm :     0.0278540 Eh/α   predicted    -0.3407116E-02 ( -18.99%)
   displ. norm   :     0.5590837 α      lambda       -0.4397445E-02
   maximum displ.:     0.1538191 α      in ANC's #17, #23, #51, ...

........................................................................
.............................. CYCLE    7 ..............................
........................................................................

 iter      E             dE          RMSdq      gap      omega  full diag
   1   -290.9784304 -0.290978E+03  0.762E-02    1.39       0.0  T
   2   -290.9784700 -0.396065E-04  0.433E-02    1.39       1.0  T
   3   -290.9784596  0.103866E-04  0.122E-02    1.39       1.0  T
   4   -290.9784741 -0.145295E-04  0.422E-03    1.39       1.7  T
   5   -290.9784762 -0.204089E-05  0.155E-03    1.39       4.7  T
   6   -290.9784763 -0.935222E-07  0.683E-04    1.39      10.8  T
   7   -290.9784763 -0.221842E-07  0.294E-04    1.39      25.0  T
     SCC iter.                  ...        0 min,  0.459 sec
     gradient                   ...        0 min,  0.377 sec
 * total energy  :  -287.1541593 Eh     change       -0.3516123E-02 Eh
   gradient norm :     0.0195191 Eh/α   predicted    -0.2886054E-02 ( -17.92%)
   displ. norm   :     0.6253390 α      lambda       -0.3867232E-02
   maximum displ.:     0.1913863 α      in ANC's #17, #23, #1, ...

........................................................................
.............................. CYCLE    8 ..............................
........................................................................

 iter      E             dE          RMSdq      gap      omega  full diag
   1   -290.9877086 -0.290988E+03  0.765E-02    1.40       0.0  T
   2   -290.9877426 -0.340158E-04  0.440E-02    1.40       1.0  T
   3   -290.9877297  0.129053E-04  0.123E-02    1.40       1.0  T
   4   -290.9877468 -0.171148E-04  0.423E-03    1.40       1.7  T
   5   -290.9877489 -0.207564E-05  0.154E-03    1.40       4.8  T
   6   -290.9877490 -0.662126E-07  0.718E-04    1.40      10.2  T
   7   -290.9877490 -0.343910E-07  0.310E-04    1.40      23.7  T
     SCC iter.                  ...        0 min,  0.457 sec
     gradient                   ...        0 min,  0.378 sec
 * total energy  :  -287.1572648 Eh     change       -0.3105422E-02 Eh
   gradient norm :     0.0151759 Eh/α   predicted    -0.2689754E-02 ( -13.39%)
   displ. norm   :     0.6651211 α      lambda       -0.3299012E-02
   maximum displ.:     0.2130086 α      in ANC's #17, #1, #5, ...

........................................................................
.............................. CYCLE    9 ..............................
........................................................................

 iter      E             dE          RMSdq      gap      omega  full diag
   1   -290.9950716 -0.290995E+03  0.762E-02    1.40       0.0  T
   2   -290.9951032 -0.316571E-04  0.442E-02    1.41       1.0  T
   3   -290.9950788  0.244205E-04  0.145E-02    1.40       1.0  T
   4   -290.9951110 -0.321655E-04  0.353E-03    1.40       2.1  T
   5   -290.9951124 -0.146665E-05  0.142E-03    1.40       5.2  T
   6   -290.9951125 -0.459451E-07  0.579E-04    1.40      12.7  T
   7   -290.9951125 -0.221981E-07  0.260E-04    1.40      28.3  T
     SCC iter.                  ...        0 min,  0.453 sec
     gradient                   ...        0 min,  0.383 sec
 * total energy  :  -287.1597474 Eh     change       -0.2482684E-02 Eh
   gradient norm :     0.0233015 Eh/α   predicted    -0.2379226E-02 (  -4.17%)
   displ. norm   :     0.6627197 α      lambda       -0.2818055E-02
   maximum displ.:     0.2313894 α      in ANC's #17, #1, #5, ...

........................................................................
.............................. CYCLE   10 ..............................
........................................................................

 iter      E             dE          RMSdq      gap      omega  full diag
   1   -290.9990251 -0.290999E+03  0.749E-02    1.41       0.0  T
   2   -290.9990436 -0.184134E-04  0.437E-02    1.41       1.0  T
   3   -290.9990366  0.691877E-05  0.921E-03    1.41       1.0  T
   4   -290.9990475 -0.108915E-04  0.278E-03    1.41       2.6  T
   5   -290.9990482 -0.642285E-06  0.139E-03    1.41       5.3  T
   6   -290.9990482 -0.524070E-07  0.572E-04    1.41      12.9  T
   7   -290.9990482 -0.228406E-07  0.275E-04    1.41      26.7  T
     SCC iter.                  ...        0 min,  0.452 sec
     gradient                   ...        0 min,  0.377 sec
 * total energy  :  -287.1617251 Eh     change       -0.1977635E-02 Eh
   gradient norm :     0.0193193 Eh/α   predicted    -0.2027893E-02 (   2.54%)
   displ. norm   :     0.6264488 α      lambda       -0.2150500E-02
   maximum displ.:     0.2292239 α      in ANC's #17, #1, #5, ...

........................................................................
.............................. CYCLE   11 ..............................
........................................................................

 iter      E             dE          RMSdq      gap      omega  full diag
   1   -290.9980414 -0.290998E+03  0.664E-02    1.42       0.0  T
   2   -290.9980589 -0.174786E-04  0.384E-02    1.42       1.0  T
   3   -290.9980409  0.179595E-04  0.119E-02    1.42       1.0  T
   4   -290.9980641 -0.231118E-04  0.262E-03    1.42       2.8  T
   5   -290.9980647 -0.683569E-06  0.117E-03    1.42       6.3  T
   6   -290.9980648 -0.301614E-07  0.548E-04    1.42      13.4  T
   7   -290.9980648 -0.240703E-07  0.240E-04    1.42      30.7  T
     SCC iter.                  ...        0 min,  0.463 sec
     gradient                   ...        0 min,  0.375 sec
 * total energy  :  -287.1633707 Eh     change       -0.1645622E-02 Eh
   gradient norm :     0.0197074 Eh/α   predicted    -0.1497224E-02 (  -9.02%)
   displ. norm   :     0.6339624 α      lambda       -0.2312939E-02
   maximum displ.:     0.2440519 α      in ANC's #17, #1, #5, ...

........................................................................
.............................. CYCLE   12 ..............................
........................................................................

 iter      E             dE          RMSdq      gap      omega  full diag
   1   -291.0050501 -0.291005E+03  0.691E-02    1.43       0.0  T
   2   -291.0050708 -0.206823E-04  0.401E-02    1.42       1.0  T
   3   -291.0050319  0.389304E-04  0.170E-02    1.42       1.0  T
   4   -291.0050809 -0.490908E-04  0.290E-03    1.42       2.5  T
   5   -291.0050817 -0.750929E-06  0.136E-03    1.42       5.4  T
   6   -291.0050818 -0.559266E-07  0.677E-04    1.42      10.9  T
   7   -291.0050818 -0.430563E-07  0.262E-04    1.42      28.1  T
     SCC iter.                  ...        0 min,  0.456 sec
     gradient                   ...        0 min,  0.377 sec
 * total energy  :  -287.1649964 Eh     change       -0.1625736E-02 Eh
   gradient norm :     0.0224069 Eh/α   predicted    -0.1621301E-02 (  -0.27%)
   displ. norm   :     0.6224784 α      lambda       -0.1938502E-02
   maximum displ.:     0.2458065 α      in ANC's #17, #1, #5, ...

........................................................................
.............................. CYCLE   13 ..............................
........................................................................

 iter      E             dE          RMSdq      gap      omega  full diag
   1   -291.0016405 -0.291002E+03  0.653E-02    1.43       0.0  T
   2   -291.0016569 -0.164101E-04  0.379E-02    1.43       1.0  T
   3   -291.0016437  0.131836E-04  0.107E-02    1.42       1.0  T
   4   -291.0016608 -0.170243E-04  0.284E-03    1.42       2.6  T
   5   -291.0016617 -0.975799E-06  0.123E-03    1.42       6.0  T
   6   -291.0016618 -0.357905E-07  0.546E-04    1.42      13.5  T
   7   -291.0016618 -0.250321E-07  0.263E-04    1.42      27.9  T
     SCC iter.                  ...        0 min,  0.420 sec
     gradient                   ...        0 min,  0.374 sec
 * total energy  :  -287.1664601 Eh     change       -0.1463702E-02 Eh
   gradient norm :     0.0149587 Eh/α   predicted    -0.1344829E-02 (  -8.12%)
   displ. norm   :     0.5978273 α      lambda       -0.1495629E-02
   maximum displ.:     0.2367153 α      in ANC's #17, #1, #5, ...

........................................................................
.............................. CYCLE   14 ..............................
........................................................................

 iter      E             dE          RMSdq      gap      omega  full diag
   1   -291.0018824 -0.291002E+03  0.612E-02    1.43       0.0  T
   2   -291.0018956 -0.131613E-04  0.356E-02    1.42       1.0  T
   3   -291.0018852  0.104150E-04  0.916E-03    1.43       1.0  T
   4   -291.0018981 -0.128677E-04  0.266E-03    1.43       2.8  T
   5   -291.0018989 -0.883952E-06  0.108E-03    1.43       6.8  T
   6   -291.0018990 -0.455797E-07  0.481E-04    1.43      15.3  T
   7   -291.0018990 -0.158921E-07  0.221E-04    1.43      33.3  T
     SCC iter.                  ...        0 min,  0.420 sec
     gradient                   ...        0 min,  0.373 sec
 * total energy  :  -287.1676023 Eh     change       -0.1142115E-02 Eh
   gradient norm :     0.0130603 Eh/α   predicted    -0.1015084E-02 ( -11.12%)
   displ. norm   :     0.6167895 α      lambda       -0.1195399E-02
   maximum displ.:     0.2327859 α      in ANC's #17, #1, #5, ...

........................................................................
.............................. CYCLE   15 ..............................
........................................................................

 iter      E             dE          RMSdq      gap      omega  full diag
   1   -290.9992197 -0.290999E+03  0.618E-02    1.43       0.0  T
   2   -290.9992406 -0.209419E-04  0.360E-02    1.43       1.0  T
   3   -290.9992298  0.107956E-04  0.103E-02    1.43       1.0  T
   4   -290.9992437 -0.139224E-04  0.290E-03    1.43       2.5  T
   5   -290.9992449 -0.121671E-05  0.109E-03    1.43       6.8  T
   6   -290.9992450 -0.407018E-07  0.472E-04    1.43      15.6  T
   7   -290.9992450 -0.796484E-08  0.236E-04    1.43      31.1  T
     SCC iter.                  ...        0 min,  0.428 sec
     gradient                   ...        0 min,  0.376 sec
 * total energy  :  -287.1684763 Eh     change       -0.8740196E-03 Eh
   gradient norm :     0.0163478 Eh/α   predicted    -0.8250944E-03 (  -5.60%)
   displ. norm   :     0.5673496 α      lambda       -0.1345070E-02
   maximum displ.:     0.1982789 α      in ANC's #17, #8, #4, ...

........................................................................
.............................. CYCLE   16 ..............................
........................................................................

 iter      E             dE          RMSdq      gap      omega  full diag
   1   -291.0139285 -0.291014E+03  0.608E-02    1.43       0.0  T
   2   -291.0139713 -0.427997E-04  0.352E-02    1.43       1.0  T
   3   -291.0139638  0.753827E-05  0.133E-02    1.43       1.0  T
   4   -291.0139762 -0.124695E-04  0.357E-03    1.43       2.1  T
   5   -291.0139781 -0.184740E-05  0.124E-03    1.43       5.9  T
   6   -291.0139781 -0.504635E-07  0.576E-04    1.43      12.8  T
   7   -291.0139781 -0.109464E-07  0.213E-04    1.43      34.5  T
     SCC iter.                  ...        0 min,  0.433 sec
     gradient                   ...        0 min,  0.374 sec
 * total energy  :  -287.1690186 Eh     change       -0.5423097E-03 Eh
   gradient norm :     0.0214384 Eh/α   predicted    -0.8890223E-03 (  63.93%)
   displ. norm   :     0.4495796 α      lambda       -0.1126940E-02
   maximum displ.:     0.1445626 α      in ANC's #17, #46, #8, ...

........................................................................
.............................. CYCLE   17 ..............................
........................................................................

 iter      E             dE          RMSdq      gap      omega  full diag
   1   -291.0017002 -0.291002E+03  0.480E-02    1.43       0.0  T
   2   -291.0017217 -0.215439E-04  0.279E-02    1.44       1.0  T
   3   -291.0017176  0.416028E-05  0.886E-03    1.43       1.0  T
   4   -291.0017240 -0.640886E-05  0.234E-03    1.44       3.1  T
   5   -291.0017249 -0.906691E-06  0.917E-04    1.44       8.0  T
   6   -291.0017249 -0.286196E-07  0.451E-04    1.44      16.3  T
     SCC iter.                  ...        0 min,  0.402 sec
     gradient                   ...        0 min,  0.376 sec
 * total energy  :  -287.1697377 Eh     change       -0.7191167E-03 Eh
   gradient norm :     0.0144707 Eh/α   predicted    -0.6773600E-03 (  -5.81%)
   displ. norm   :     0.3756111 α      lambda       -0.9096018E-03
   maximum displ.:     0.1253247 α      in ANC's #19, #8, #46, ...

........................................................................
.............................. CYCLE   18 ..............................
........................................................................

 iter      E             dE          RMSdq      gap      omega  full diag
   1   -291.0083343 -0.291008E+03  0.408E-02    1.44       0.0  T
   2   -291.0083677 -0.334166E-04  0.237E-02    1.44       1.0  T
   3   -291.0083678 -0.128439E-06  0.969E-03    1.44       1.0  T
   4   -291.0083704 -0.255307E-05  0.218E-03    1.44       3.4  T
   5   -291.0083710 -0.661933E-06  0.917E-04    1.44       8.0  T
   6   -291.0083711 -0.570225E-07  0.453E-04    1.44      16.2  T
     SCC iter.                  ...        0 min,  0.410 sec
     gradient                   ...        0 min,  0.376 sec
 * total energy  :  -287.1701427 Eh     change       -0.4050474E-03 Eh
   gradient norm :     0.0225490 Eh/α   predicted    -0.5189682E-03 (  28.13%)
   displ. norm   :     0.3857272 α      lambda       -0.9136666E-03
   maximum displ.:     0.1339411 α      in ANC's #8, #7, #19, ...

........................................................................
.............................. CYCLE   19 ..............................
........................................................................

 iter      E             dE          RMSdq      gap      omega  full diag
   1   -291.0037210 -0.291004E+03  0.383E-02    1.44       0.0  T
   2   -291.0037324 -0.113883E-04  0.223E-02    1.44       1.0  T
   3   -291.0037303  0.206126E-05  0.655E-03    1.44       1.1  T
   4   -291.0037337 -0.341368E-05  0.156E-03    1.44       4.7  T
   5   -291.0037340 -0.295600E-06  0.683E-04    1.44      10.8  T
   6   -291.0037340 -0.202390E-07  0.344E-04    1.44      21.4  T
     SCC iter.                  ...        0 min,  0.400 sec
     gradient                   ...        0 min,  0.373 sec
 * total energy  :  -287.1708082 Eh     change       -0.6654924E-03 Eh
   gradient norm :     0.0157528 Eh/α   predicted    -0.5248082E-03 ( -21.14%)
   displ. norm   :     0.4807905 α      lambda       -0.1085912E-02
   maximum displ.:     0.1692319 α      in ANC's #8, #19, #7, ...

........................................................................
.............................. CYCLE   20 ..............................
........................................................................

 iter      E             dE          RMSdq      gap      omega  full diag
   1   -291.0063055 -0.291006E+03  0.501E-02    1.44       0.0  T
   2   -291.0063437 -0.381988E-04  0.294E-02    1.44       1.0  T
   3   -291.0063424  0.123695E-05  0.107E-02    1.44       1.0  T
   4   -291.0063470 -0.460492E-05  0.245E-03    1.44       3.0  T
   5   -291.0063478 -0.762371E-06  0.105E-03    1.44       7.0  T
   6   -291.0063479 -0.688648E-07  0.478E-04    1.44      15.4  T
   7   -291.0063479 -0.100703E-07  0.198E-04    1.44      37.1  T
     SCC iter.                  ...        0 min,  0.454 sec
     gradient                   ...        0 min,  0.374 sec
 * total energy  :  -287.1713302 Eh     change       -0.5219687E-03 Eh
   gradient norm :     0.0174690 Eh/α   predicted    -0.6684663E-03 (  28.07%)
   displ. norm   :     0.5057474 α      lambda       -0.8722737E-03
   maximum displ.:     0.1780400 α      in ANC's #19, #8, #7, ...
 * RMSD in coord.:     0.5868879 α      energy gain  -0.3967261E+00 Eh

generating ANC from model Hessian ...
Using Lindh-Hessian (1995)
 Shifting diagonal of input Hessian by   9.746130779875585E-003
 Lowest  eigenvalues of input Hessian
   -0.000000   -0.000000   -0.000000   -0.000000   -0.000000   -0.000000
   -0.000000   -0.000000   -0.000000   -0.000000   -0.000000   -0.000000
   -0.000000   -0.000000   -0.000000   -0.000000   -0.000000   -0.000000
 Highest eigenvalues
    2.216397    2.233034    2.243052    2.276214    2.361730    2.370167
 

........................................................................
.............................. CYCLE   21 ..............................
........................................................................

 iter      E             dE          RMSdq      gap      omega  full diag
   1   -291.0057094 -0.291006E+03  0.491E-02    1.44       0.0  T
   2   -291.0057312 -0.218654E-04  0.286E-02    1.43       1.0  T
   3   -291.0057296  0.158969E-05  0.854E-03    1.43       1.0  T
   4   -291.0057338 -0.416229E-05  0.149E-03    1.43       4.9  T
   5   -291.0057339 -0.147902E-06  0.810E-04    1.43       9.1  T
   6   -291.0057340 -0.299662E-07  0.359E-04    1.43      20.5  T
     SCC iter.                  ...        0 min,  0.433 sec
     gradient                   ...        0 min,  0.375 sec
 * total energy  :  -287.1718784 Eh     change       -0.5481665E-03 Eh
   gradient norm :     0.0146185 Eh/α   predicted     0.0000000E+00 (-100.00%)
   displ. norm   :     0.1320959 α      lambda       -0.5121324E-03
   maximum displ.:     0.0681590 α      in ANC's #45, #19, #20, ...

........................................................................
.............................. CYCLE   22 ..............................
........................................................................

 iter      E             dE          RMSdq      gap      omega  full diag
   1   -291.0090684 -0.291009E+03  0.190E-02    1.43       0.0  T
   2   -291.0090736 -0.525079E-05  0.112E-02    1.43       1.0  T
   3   -291.0090732  0.385950E-06  0.417E-03    1.43       1.8  T
   4   -291.0090742 -0.928331E-06  0.101E-03    1.43       7.3  T
   5   -291.0090743 -0.150060E-06  0.423E-04    1.43      17.4  T
   6   -291.0090743 -0.122703E-07  0.183E-04    1.43      40.1  T
     SCC iter.                  ...        0 min,  0.392 sec
     gradient                   ...        0 min,  0.372 sec
 * total energy  :  -287.1722693 Eh     change       -0.3909677E-03 Eh
   gradient norm :     0.0048482 Eh/α   predicted    -0.2605392E-03 ( -33.36%)
   displ. norm   :     0.3232040 α      lambda       -0.6562264E-03
   maximum displ.:     0.1726452 α      in ANC's #45, #19, #20, ...

........................................................................
.............................. CYCLE   23 ..............................
........................................................................

 iter      E             dE          RMSdq      gap      omega  full diag
   1   -291.0109261 -0.291011E+03  0.379E-02    1.44       0.0  T
   2   -291.0109368 -0.106373E-04  0.222E-02    1.44       1.0  T
   3   -291.0109354  0.132886E-05  0.587E-03    1.44       1.3  T
   4   -291.0109380 -0.252968E-05  0.159E-03    1.44       4.6  T
   5   -291.0109383 -0.285002E-06  0.728E-04    1.44      10.1  T
   6   -291.0109383 -0.252766E-07  0.300E-04    1.44      24.5  T
     SCC iter.                  ...        0 min,  0.382 sec
     gradient                   ...        0 min,  0.374 sec
 * total energy  :  -287.1727413 Eh     change       -0.4719188E-03 Eh
   gradient norm :     0.0108901 Eh/α   predicted    -0.3624363E-03 ( -23.20%)
   displ. norm   :     0.3950577 α      lambda       -0.5550843E-03
   maximum displ.:     0.1997675 α      in ANC's #45, #19, #20, ...

........................................................................
.............................. CYCLE   24 ..............................
........................................................................

 iter      E             dE          RMSdq      gap      omega  full diag
   1   -291.0089435 -0.291009E+03  0.416E-02    1.45       0.0  T
   2   -291.0089492 -0.566461E-05  0.244E-02    1.45       1.0  T
   3   -291.0089474  0.176406E-05  0.454E-03    1.45       1.6  T
   4   -291.0089502 -0.275297E-05  0.153E-03    1.45       4.8  T
   5   -291.0089504 -0.265141E-06  0.737E-04    1.45      10.0  T
   6   -291.0089505 -0.193579E-07  0.283E-04    1.45      26.0  T
     SCC iter.                  ...        0 min,  0.388 sec
     gradient                   ...        0 min,  0.375 sec
 * total energy  :  -287.1731371 Eh     change       -0.3957994E-03 Eh
   gradient norm :     0.0178356 Eh/α   predicted    -0.3208622E-03 ( -18.93%)
   displ. norm   :     0.3771689 α      lambda       -0.6218368E-03
   maximum displ.:     0.1494518 α      in ANC's #45, #19, #20, ...

........................................................................
.............................. CYCLE   25 ..............................
........................................................................

 iter      E             dE          RMSdq      gap      omega  full diag
   1   -291.0072696 -0.291007E+03  0.371E-02    1.46       0.0  T
   2   -291.0072742 -0.466452E-05  0.217E-02    1.46       1.0  T
   3   -291.0072732  0.105812E-05  0.390E-03    1.46       1.9  T
   4   -291.0072750 -0.183339E-05  0.118E-03    1.46       6.2  T
   5   -291.0072751 -0.135708E-06  0.609E-04    1.46      12.1  T
   6   -291.0072752 -0.166784E-07  0.255E-04    1.46      28.9  T
     SCC iter.                  ...        0 min,  0.388 sec
     gradient                   ...        0 min,  0.374 sec
 * total energy  :  -287.1736361 Eh     change       -0.4990309E-03 Eh
   gradient norm :     0.0152420 Eh/α   predicted    -0.3552151E-03 ( -28.82%)
   displ. norm   :     0.4247059 α      lambda       -0.8859722E-03
   maximum displ.:     0.1696983 α      in ANC's #19, #20, #45, ...

........................................................................
.............................. CYCLE   26 ..............................
........................................................................

 iter      E             dE          RMSdq      gap      omega  full diag
   1   -291.0082258 -0.291008E+03  0.432E-02    1.48       0.0  T
   2   -291.0082423 -0.165428E-04  0.250E-02    1.47       1.0  T
   3   -291.0082405  0.182741E-05  0.739E-03    1.48       1.0  T
   4   -291.0082440 -0.351906E-05  0.170E-03    1.48       4.3  T
   5   -291.0082444 -0.354983E-06  0.787E-04    1.48       9.3  T
   6   -291.0082444 -0.225608E-07  0.395E-04    1.48      18.6  T
     SCC iter.                  ...        0 min,  0.393 sec
     gradient                   ...        0 min,  0.378 sec
 * total energy  :  -287.1741991 Eh     change       -0.5629731E-03 Eh
   gradient norm :     0.0078599 Eh/α   predicted    -0.5228906E-03 (  -7.12%)
   displ. norm   :     0.6089488 α      lambda       -0.6681318E-03
   maximum displ.:     0.2417627 α      in ANC's #20, #45, #19, ...

........................................................................
.............................. CYCLE   27 ..............................
........................................................................

 iter      E             dE          RMSdq      gap      omega  full diag
   1   -291.0003673 -0.291000E+03  0.610E-02    1.49       0.0  T
   2   -291.0003816 -0.143735E-04  0.355E-02    1.49       1.0  T
   3   -291.0003776  0.408872E-05  0.729E-03    1.49       1.0  T
   4   -291.0003836 -0.607801E-05  0.221E-03    1.49       3.3  T
   5   -291.0003842 -0.594878E-06  0.104E-03    1.49       7.1  T
   6   -291.0003843 -0.206342E-07  0.477E-04    1.49      15.4  T
   7   -291.0003843 -0.171092E-07  0.181E-04    1.49      40.6  T
     SCC iter.                  ...        0 min,  0.467 sec
     gradient                   ...        0 min,  0.376 sec
 * total energy  :  -287.1745273 Eh     change       -0.3282282E-03 Eh
   gradient norm :     0.0171715 Eh/α   predicted    -0.4579435E-03 (  39.52%)
   displ. norm   :     0.1909652 α      lambda       -0.5357433E-03
   maximum displ.:     0.0759734 α      in ANC's #20, #19, #1, ...

........................................................................
.............................. CYCLE   28 ..............................
........................................................................

 iter      E             dE          RMSdq      gap      omega  full diag
   1   -291.0065607 -0.291007E+03  0.202E-02    1.50       0.0  T
   2   -291.0065643 -0.352267E-05  0.116E-02    1.49       1.0  T
   3   -291.0065638  0.467143E-06  0.340E-03    1.49       2.2  T
   4   -291.0065646 -0.828509E-06  0.100E-03    1.49       7.3  T
   5   -291.0065647 -0.116842E-06  0.431E-04    1.49      17.1  T
   6   -291.0065647 -0.387394E-08  0.201E-04    1.49      36.5  T
     SCC iter.                  ...        0 min,  0.411 sec
     gradient                   ...        0 min,  0.380 sec
 * total energy  :  -287.1749384 Eh     change       -0.4110849E-03 Eh
   gradient norm :     0.0091387 Eh/α   predicted    -0.2776415E-03 ( -32.46%)
   displ. norm   :     0.5351228 α      lambda       -0.6551972E-03
   maximum displ.:     0.2227617 α      in ANC's #20, #19, #1, ...

........................................................................
.............................. CYCLE   29 ..............................
........................................................................

 iter      E             dE          RMSdq      gap      omega  full diag
   1   -291.0103862 -0.291010E+03  0.493E-02    1.50       0.0  T
   2   -291.0103923 -0.614411E-05  0.289E-02    1.50       1.0  T
   3   -291.0103892  0.304652E-05  0.544E-03    1.50       1.4  T
   4   -291.0103937 -0.441017E-05  0.161E-03    1.50       4.6  T
   5   -291.0103939 -0.226876E-06  0.822E-04    1.50       8.9  T
   6   -291.0103939 -0.271009E-07  0.355E-04    1.50      20.7  T
     SCC iter.                  ...        0 min,  0.397 sec
     gradient                   ...        0 min,  0.388 sec
 * total energy  :  -287.1754344 Eh     change       -0.4960137E-03 Eh
   gradient norm :     0.0073392 Eh/α   predicted    -0.4214816E-03 ( -15.03%)
   displ. norm   :     0.5713573 α      lambda       -0.4738240E-03
   maximum displ.:     0.2351272 α      in ANC's #20, #19, #1, ...

........................................................................
.............................. CYCLE   30 ..............................
........................................................................

 iter      E             dE          RMSdq      gap      omega  full diag
   1   -291.0090471 -0.291009E+03  0.535E-02    1.51       0.0  T
   2   -291.0090546 -0.753048E-05  0.314E-02    1.50       1.0  T
   3   -291.0090518  0.283896E-05  0.533E-03    1.50       1.4  T
   4   -291.0090559 -0.418981E-05  0.171E-03    1.50       4.3  T
   5   -291.0090563 -0.327086E-06  0.837E-04    1.50       8.8  T
   6   -291.0090563 -0.227928E-07  0.352E-04    1.50      20.9  T
     SCC iter.                  ...        0 min,  0.387 sec
     gradient                   ...        0 min,  0.375 sec
 * total energy  :  -287.1757904 Eh     change       -0.3559911E-03 Eh
   gradient norm :     0.0081614 Eh/α   predicted    -0.3142575E-03 ( -11.72%)
   displ. norm   :     0.4514574 α      lambda       -0.4478920E-03
   maximum displ.:     0.1703800 α      in ANC's #20, #19, #10, ...

........................................................................
.............................. CYCLE   31 ..............................
........................................................................

 iter      E             dE          RMSdq      gap      omega  full diag
   1   -291.0146335 -0.291015E+03  0.449E-02    1.50       0.0  T
   2   -291.0146452 -0.116494E-04  0.262E-02    1.50       1.0  T
   3   -291.0146434  0.178356E-05  0.598E-03    1.50       1.2  T
   4   -291.0146465 -0.311502E-05  0.157E-03    1.50       4.7  T
   5   -291.0146468 -0.249781E-06  0.783E-04    1.50       9.4  T
   6   -291.0146468 -0.285117E-07  0.386E-04    1.50      19.1  T
     SCC iter.                  ...        0 min,  0.390 sec
     gradient                   ...        0 min,  0.390 sec
 * total energy  :  -287.1760331 Eh     change       -0.2426986E-03 Eh
   gradient norm :     0.0066595 Eh/α   predicted    -0.2695914E-03 (  11.08%)
   displ. norm   :     0.5494554 α      lambda       -0.3302351E-03
   maximum displ.:     0.2090990 α      in ANC's #20, #19, #10, ...

........................................................................
.............................. CYCLE   32 ..............................
........................................................................

 iter      E             dE          RMSdq      gap      omega  full diag
   1   -291.0054595 -0.291005E+03  0.545E-02    1.51       0.0  T
   2   -291.0054674 -0.788547E-05  0.318E-02    1.50       1.0  T
   3   -291.0054643  0.302880E-05  0.576E-03    1.50       1.3  T
   4   -291.0054691 -0.476627E-05  0.158E-03    1.50       4.6  T
   5   -291.0054693 -0.186360E-06  0.863E-04    1.50       8.5  T
   6   -291.0054693 -0.255557E-07  0.374E-04    1.50      19.7  T
     SCC iter.                  ...        0 min,  0.410 sec
     gradient                   ...        0 min,  0.385 sec
 * total energy  :  -287.1761455 Eh     change       -0.1123720E-03 Eh
   gradient norm :     0.0098300 Eh/α   predicted    -0.2149733E-03 (  91.30%)
   displ. norm   :     0.0841115 α      lambda       -0.2052349E-03
   maximum displ.:     0.0318533 α      in ANC's #19, #20, #45, ...

........................................................................
.............................. CYCLE   33 ..............................
........................................................................

 iter      E             dE          RMSdq      gap      omega  full diag
   1   -291.0108744 -0.291011E+03  0.127E-02    1.50       0.0  T
   2   -291.0108767 -0.228647E-05  0.722E-03    1.50       1.0  T
   3   -291.0108766  0.650851E-07  0.267E-03    1.50       2.8  T
   4   -291.0108769 -0.315842E-06  0.570E-04    1.50      12.9  T
   5   -291.0108769 -0.369538E-07  0.282E-04    1.50      26.1  T
     SCC iter.                  ...        0 min,  0.339 sec
     gradient                   ...        0 min,  0.379 sec
 * total energy  :  -287.1762805 Eh     change       -0.1350697E-03 Eh
   gradient norm :     0.0041611 Eh/α   predicted    -0.1033453E-03 ( -23.49%)
   displ. norm   :     0.2294996 α      lambda       -0.1650101E-03
   maximum displ.:     0.0968537 α      in ANC's #10, #1, #7, ...

........................................................................
.............................. CYCLE   34 ..............................
........................................................................

 iter      E             dE          RMSdq      gap      omega  full diag
   1   -291.0125355 -0.291013E+03  0.249E-02    1.50       0.0  T
   2   -291.0125379 -0.239495E-05  0.146E-02    1.50       1.0  T
   3   -291.0125371  0.829135E-06  0.334E-03    1.50       2.2  T
   4   -291.0125384 -0.133816E-05  0.668E-04    1.50      11.0  T
   5   -291.0125384 -0.140184E-07  0.421E-04    1.50      17.5  T
   6   -291.0125384 -0.110614E-07  0.183E-04    1.50      40.1  T
     SCC iter.                  ...        0 min,  0.422 sec
     gradient                   ...        0 min,  0.381 sec
 * total energy  :  -287.1763915 Eh     change       -0.1109943E-03 Eh
   gradient norm :     0.0047395 Eh/α   predicted    -0.8685227E-04 ( -21.75%)
   displ. norm   :     0.3421102 α      lambda       -0.1733554E-03
   maximum displ.:     0.1431807 α      in ANC's #10, #1, #7, ...

........................................................................
.............................. CYCLE   35 ..............................
........................................................................

 iter      E             dE          RMSdq      gap      omega  full diag
   1   -291.0128615 -0.291013E+03  0.375E-02    1.50       0.0  T
   2   -291.0128658 -0.435504E-05  0.219E-02    1.50       1.0  T
   3   -291.0128652  0.643705E-06  0.364E-03    1.50       2.0  T
   4   -291.0128665 -0.133260E-05  0.992E-04    1.50       7.4  T
   5   -291.0128666 -0.541631E-07  0.562E-04    1.50      13.1  T
   6   -291.0128666 -0.154787E-07  0.238E-04    1.50      30.9  T
     SCC iter.                  ...        0 min,  0.379 sec
     gradient                   ...        0 min,  0.376 sec
 * total energy  :  -287.1765008 Eh     change       -0.1093031E-03 Eh
   gradient norm :     0.0058954 Eh/α   predicted    -0.9682286E-04 ( -11.42%)
   displ. norm   :     0.3495415 α      lambda       -0.1488788E-03
   maximum displ.:     0.1471700 α      in ANC's #10, #7, #6, ...

........................................................................
.............................. CYCLE   36 ..............................
........................................................................

 iter      E             dE          RMSdq      gap      omega  full diag
   1   -291.0112009 -0.291011E+03  0.358E-02    1.50       0.0  T
   2   -291.0112041 -0.318183E-05  0.209E-02    1.50       1.0  T
   3   -291.0112032  0.966456E-06  0.352E-03    1.50       2.1  T
   4   -291.0112047 -0.154135E-05  0.109E-03    1.50       6.7  T
   5   -291.0112048 -0.900871E-07  0.587E-04    1.50      12.5  T
   6   -291.0112048 -0.201890E-07  0.242E-04    1.50      30.4  T
     SCC iter.                  ...        0 min,  0.390 sec
     gradient                   ...        0 min,  0.379 sec
 * total energy  :  -287.1765998 Eh     change       -0.9897520E-04 Eh
   gradient norm :     0.0049732 Eh/α   predicted    -0.8353652E-04 ( -15.60%)
   displ. norm   :     0.2718730 α      lambda       -0.1455351E-03
   maximum displ.:     0.1216472 α      in ANC's #10, #7, #6, ...

........................................................................
.............................. CYCLE   37 ..............................
........................................................................

 iter      E             dE          RMSdq      gap      omega  full diag
   1   -291.0107360 -0.291011E+03  0.300E-02    1.50       0.0  T
   2   -291.0107389 -0.293638E-05  0.173E-02    1.50       1.0  T
   3   -291.0107380  0.963969E-06  0.347E-03    1.50       2.1  T
   4   -291.0107394 -0.139290E-05  0.112E-03    1.50       6.5  T
   5   -291.0107395 -0.126028E-06  0.556E-04    1.50      13.2  T
   6   -291.0107395 -0.196096E-07  0.211E-04    1.50      34.8  T
     SCC iter.                  ...        0 min,  0.363 sec
     gradient                   ...        0 min,  0.369 sec
 * total energy  :  -287.1767012 Eh     change       -0.1014152E-03 Eh
   gradient norm :     0.0059932 Eh/α   predicted    -0.7814860E-04 ( -22.94%)
   displ. norm   :     0.2880067 α      lambda       -0.1901386E-03
   maximum displ.:     0.1285158 α      in ANC's #10, #7, #6, ...

........................................................................
.............................. CYCLE   38 ..............................
........................................................................

 iter      E             dE          RMSdq      gap      omega  full diag
   1   -291.0131949 -0.291013E+03  0.327E-02    1.50       0.0  T
   2   -291.0131985 -0.358376E-05  0.186E-02    1.50       1.0  T
   3   -291.0131976  0.863049E-06  0.362E-03    1.50       2.0  T
   4   -291.0131989 -0.130049E-05  0.139E-03    1.50       5.3  T
   5   -291.0131991 -0.196337E-06  0.621E-04    1.50      11.8  T
   6   -291.0131991 -0.249502E-07  0.196E-04    1.50      37.4  T
     SCC iter.                  ...        0 min,  0.357 sec
     gradient                   ...        0 min,  0.371 sec
 * total energy  :  -287.1768057 Eh     change       -0.1045187E-03 Eh
   gradient norm :     0.0052530 Eh/α   predicted    -0.1029559E-03 (  -1.50%)
   displ. norm   :     0.3359352 α      lambda       -0.1434242E-03
   maximum displ.:     0.1587820 α      in ANC's #10, #6, #7, ...

........................................................................
.............................. CYCLE   39 ..............................
........................................................................

 iter      E             dE          RMSdq      gap      omega  full diag
   1   -291.0092917 -0.291009E+03  0.358E-02    1.50       0.0  T
   2   -291.0092962 -0.451058E-05  0.208E-02    1.50       1.0  T
   3   -291.0092950  0.122281E-05  0.427E-03    1.50       1.7  T
   4   -291.0092970 -0.198681E-05  0.128E-03    1.50       5.7  T
   5   -291.0092971 -0.969249E-07  0.661E-04    1.50      11.1  T
   6   -291.0092971 -0.313213E-07  0.240E-04    1.50      30.6  T
     SCC iter.                  ...        0 min,  0.364 sec
     gradient                   ...        0 min,  0.372 sec
 * total energy  :  -287.1768756 Eh     change       -0.6985226E-04 Eh
   gradient norm :     0.0068820 Eh/α   predicted    -0.7980692E-04 (  14.25%)
   displ. norm   :     0.1632199 α      lambda       -0.1474485E-03
   maximum displ.:     0.0608636 α      in ANC's #19, #10, #20, ...

........................................................................
.............................. CYCLE   40 ..............................
........................................................................

 iter      E             dE          RMSdq      gap      omega  full diag
   1   -291.0120853 -0.291012E+03  0.187E-02    1.50       0.0  T
   2   -291.0120916 -0.636787E-05  0.107E-02    1.50       1.0  T
   3   -291.0120917 -0.978056E-07  0.394E-03    1.50       1.9  T
   4   -291.0120921 -0.358184E-06  0.850E-04    1.50       8.6  T
   5   -291.0120922 -0.523753E-07  0.427E-04    1.50      17.2  T
     SCC iter.                  ...        0 min,  0.290 sec
     gradient                   ...        0 min,  0.373 sec
 * total energy  :  -287.1769539 Eh     change       -0.7828593E-04 Eh
   gradient norm :     0.0062585 Eh/α   predicted    -0.7568966E-04 (  -3.32%)
   displ. norm   :     0.1996374 α      lambda       -0.1211819E-03
   maximum displ.:     0.0945852 α      in ANC's #10, #6, #7, ...

........................................................................
.............................. CYCLE   41 ..............................
........................................................................

 iter      E             dE          RMSdq      gap      omega  full diag
   1   -291.0118124 -0.291012E+03  0.228E-02    1.50       0.0  T
   2   -291.0118150 -0.260681E-05  0.132E-02    1.50       1.0  T
   3   -291.0118146  0.466055E-06  0.316E-03    1.50       2.3  T
   4   -291.0118154 -0.846581E-06  0.803E-04    1.50       9.2  T
   5   -291.0118154 -0.320519E-07  0.434E-04    1.50      16.9  T
     SCC iter.                  ...        0 min,  0.292 sec
     gradient                   ...        0 min,  0.372 sec
 * total energy  :  -287.1770313 Eh     change       -0.7746007E-04 Eh
   gradient norm :     0.0057159 Eh/α   predicted    -0.6300743E-04 ( -18.66%)
   displ. norm   :     0.2571723 α      lambda       -0.1346211E-03
   maximum displ.:     0.1224244 α      in ANC's #10, #6, #7, ...

........................................................................
.............................. CYCLE   42 ..............................
........................................................................

 iter      E             dE          RMSdq      gap      omega  full diag
   1   -291.0127040 -0.291013E+03  0.270E-02    1.49       0.0  T
   2   -291.0127088 -0.473007E-05  0.156E-02    1.49       1.0  T
   3   -291.0127084  0.337916E-06  0.367E-03    1.49       2.0  T
   4   -291.0127092 -0.796170E-06  0.978E-04    1.49       7.5  T
   5   -291.0127093 -0.735544E-07  0.515E-04    1.49      14.3  T
     SCC iter.                  ...        0 min,  0.295 sec
     gradient                   ...        0 min,  0.377 sec
 * total energy  :  -287.1771071 Eh     change       -0.7577574E-04 Eh
   gradient norm :     0.0053700 Eh/α   predicted    -0.7176289E-04 (  -5.30%)
   displ. norm   :     0.3826788 α      lambda       -0.1300206E-03
   maximum displ.:     0.1823408 α      in ANC's #10, #6, #7, ...
 * RMSD in coord.:     0.4399250 α      energy gain  -0.5776895E-02 Eh

generating ANC from model Hessian ...
Using Lindh-Hessian (1995)
 Shifting diagonal of input Hessian by   9.748808816409025E-003
 Lowest  eigenvalues of input Hessian
   -0.000000   -0.000000   -0.000000   -0.000000   -0.000000   -0.000000
   -0.000000   -0.000000   -0.000000   -0.000000   -0.000000   -0.000000
   -0.000000   -0.000000   -0.000000   -0.000000   -0.000000   -0.000000
 Highest eigenvalues
    2.217767    2.231749    2.244858    2.272670    2.344170    2.371950
 

........................................................................
.............................. CYCLE   43 ..............................
........................................................................

 iter      E             dE          RMSdq      gap      omega  full diag
   1   -291.0087491 -0.291009E+03  0.397E-02    1.49       0.0  T
   2   -291.0087533 -0.421771E-05  0.231E-02    1.49       1.0  T
   3   -291.0087522  0.110032E-05  0.393E-03    1.49       1.9  T
   4   -291.0087540 -0.182952E-05  0.118E-03    1.49       6.3  T
   5   -291.0087541 -0.835511E-07  0.623E-04    1.49      11.8  T
   6   -291.0087541 -0.240758E-07  0.240E-04    1.49      30.6  T
     SCC iter.                  ...        0 min,  0.361 sec
     gradient                   ...        0 min,  0.377 sec
 * total energy  :  -287.1771753 Eh     change       -0.6819502E-04 Eh
   gradient norm :     0.0069042 Eh/α   predicted     0.0000000E+00 (-100.00%)
   displ. norm   :     0.0613207 α      lambda       -0.1285971E-03
   maximum displ.:     0.0342694 α      in ANC's #47, #41, #44, ...

........................................................................
.............................. CYCLE   44 ..............................
........................................................................

 iter      E             dE          RMSdq      gap      omega  full diag
   1   -291.0119543 -0.291012E+03  0.994E-03    1.49       0.0  T
   2   -291.0119554 -0.105965E-05  0.575E-03    1.49       1.3  T
   3   -291.0119553  0.130760E-06  0.194E-03    1.49       3.8  T
   4   -291.0119555 -0.225602E-06  0.566E-04    1.49      13.0  T
   5   -291.0119555 -0.439930E-07  0.225E-04    1.49      32.7  T
     SCC iter.                  ...        0 min,  0.302 sec
     gradient                   ...        0 min,  0.378 sec
 * total energy  :  -287.1772715 Eh     change       -0.9617225E-04 Eh
   gradient norm :     0.0023957 Eh/α   predicted    -0.6473451E-04 ( -32.69%)
   displ. norm   :     0.1304591 α      lambda       -0.1248669E-03
   maximum displ.:     0.0734518 α      in ANC's #47, #41, #44, ...

........................................................................
.............................. CYCLE   45 ..............................
........................................................................

 iter      E             dE          RMSdq      gap      omega  full diag
   1   -291.0142742 -0.291014E+03  0.169E-02    1.50       0.0  T
   2   -291.0142760 -0.183060E-05  0.985E-03    1.50       1.0  T
   3   -291.0142756  0.419783E-06  0.267E-03    1.50       2.8  T
   4   -291.0142762 -0.599881E-06  0.830E-04    1.50       8.9  T
   5   -291.0142763 -0.912478E-07  0.334E-04    1.50      22.0  T
     SCC iter.                  ...        0 min,  0.304 sec
     gradient                   ...        0 min,  0.373 sec
 * total energy  :  -287.1773601 Eh     change       -0.8866655E-04 Eh
   gradient norm :     0.0030538 Eh/α   predicted    -0.6350140E-04 ( -28.38%)
   displ. norm   :     0.1727115 α      lambda       -0.9989848E-04
   maximum displ.:     0.0927233 α      in ANC's #47, #41, #44, ...

........................................................................
.............................. CYCLE   46 ..............................
........................................................................

 iter      E             dE          RMSdq      gap      omega  full diag
   1   -291.0144807 -0.291014E+03  0.206E-02    1.50       0.0  T
   2   -291.0144821 -0.142383E-05  0.121E-02    1.50       1.0  T
   3   -291.0144814  0.658784E-06  0.265E-03    1.50       2.8  T
   4   -291.0144823 -0.866735E-06  0.852E-04    1.50       8.6  T
   5   -291.0144824 -0.861504E-07  0.370E-04    1.50      19.8  T
     SCC iter.                  ...        0 min,  0.300 sec
     gradient                   ...        0 min,  0.371 sec
 * total energy  :  -287.1774358 Eh     change       -0.7564712E-04 Eh
   gradient norm :     0.0042302 Eh/α   predicted    -0.5147208E-04 ( -31.96%)
   displ. norm   :     0.2442061 α      lambda       -0.1149556E-03
   maximum displ.:     0.1163946 α      in ANC's #47, #44, #41, ...

........................................................................
.............................. CYCLE   47 ..............................
........................................................................

 iter      E             dE          RMSdq      gap      omega  full diag
   1   -291.0130168 -0.291013E+03  0.277E-02    1.51       0.0  T
   2   -291.0130184 -0.169284E-05  0.162E-02    1.51       1.0  T
   3   -291.0130175  0.946138E-06  0.306E-03    1.51       2.4  T
   4   -291.0130188 -0.129954E-05  0.970E-04    1.51       7.6  T
   5   -291.0130189 -0.865186E-07  0.476E-04    1.51      15.4  T
   6   -291.0130189 -0.831113E-08  0.191E-04    1.51      38.5  T
     SCC iter.                  ...        0 min,  0.361 sec
     gradient                   ...        0 min,  0.374 sec
 * total energy  :  -287.1775165 Eh     change       -0.8066482E-04 Eh
   gradient norm :     0.0040060 Eh/α   predicted    -0.6090588E-04 ( -24.50%)
   displ. norm   :     0.2063769 α      lambda       -0.8981944E-04
   maximum displ.:     0.0751450 α      in ANC's #44, #47, #6, ...

........................................................................
.............................. CYCLE   48 ..............................
........................................................................

 iter      E             dE          RMSdq      gap      omega  full diag
   1   -291.0116636 -0.291012E+03  0.229E-02    1.51       0.0  T
   2   -291.0116646 -0.102853E-05  0.134E-02    1.51       1.0  T
   3   -291.0116640  0.544506E-06  0.235E-03    1.51       3.1  T
   4   -291.0116648 -0.767220E-06  0.742E-04    1.51       9.9  T
   5   -291.0116649 -0.493461E-07  0.375E-04    1.51      19.6  T
     SCC iter.                  ...        0 min,  0.298 sec
     gradient                   ...        0 min,  0.375 sec
 * total energy  :  -287.1775813 Eh     change       -0.6488326E-04 Eh
   gradient norm :     0.0035446 Eh/α   predicted    -0.4682336E-04 ( -27.83%)
   displ. norm   :     0.1936181 α      lambda       -0.8727594E-04
   maximum displ.:     0.0740300 α      in ANC's #44, #6, #55, ...

........................................................................
.............................. CYCLE   49 ..............................
........................................................................

 iter      E             dE          RMSdq      gap      omega  full diag
   1   -291.0113712 -0.291011E+03  0.211E-02    1.51       0.0  T
   2   -291.0113723 -0.105762E-05  0.124E-02    1.51       1.0  T
   3   -291.0113719  0.380764E-06  0.219E-03    1.51       3.4  T
   4   -291.0113725 -0.586029E-06  0.664E-04    1.51      11.1  T
   5   -291.0113725 -0.369743E-07  0.341E-04    1.51      21.5  T
     SCC iter.                  ...        0 min,  0.309 sec
     gradient                   ...        0 min,  0.372 sec
 * total energy  :  -287.1776431 Eh     change       -0.6176604E-04 Eh
   gradient norm :     0.0041269 Eh/α   predicted    -0.4527513E-04 ( -26.70%)
   displ. norm   :     0.2077739 α      lambda       -0.7846333E-04
   maximum displ.:     0.0759573 α      in ANC's #44, #6, #55, ...

........................................................................
.............................. CYCLE   50 ..............................
........................................................................

 iter      E             dE          RMSdq      gap      omega  full diag
   1   -291.0113701 -0.291011E+03  0.224E-02    1.51       0.0  T
   2   -291.0113711 -0.949755E-06  0.131E-02    1.51       1.0  T
   3   -291.0113706  0.427960E-06  0.217E-03    1.51       3.4  T
   4   -291.0113713 -0.640557E-06  0.637E-04    1.51      11.5  T
   5   -291.0113713 -0.324767E-07  0.338E-04    1.51      21.8  T
     SCC iter.                  ...        0 min,  0.303 sec
     gradient                   ...        0 min,  0.377 sec
 * total energy  :  -287.1777028 Eh     change       -0.5971487E-04 Eh
   gradient norm :     0.0045377 Eh/α   predicted    -0.4092684E-04 ( -31.46%)
   displ. norm   :     0.2752424 α      lambda       -0.1044224E-03
   maximum displ.:     0.0993139 α      in ANC's #44, #6, #20, ...

........................................................................
.............................. CYCLE   51 ..............................
........................................................................

 iter      E             dE          RMSdq      gap      omega  full diag
   1   -291.0119592 -0.291012E+03  0.290E-02    1.50       0.0  T
   2   -291.0119605 -0.135018E-05  0.170E-02    1.51       1.0  T
   3   -291.0119599  0.612555E-06  0.258E-03    1.51       2.8  T
   4   -291.0119609 -0.953141E-06  0.794E-04    1.51       9.3  T
   5   -291.0119609 -0.415219E-07  0.437E-04    1.51      16.8  T
     SCC iter.                  ...        0 min,  0.299 sec
     gradient                   ...        0 min,  0.368 sec
 * total energy  :  -287.1777825 Eh     change       -0.7966202E-04 Eh
   gradient norm :     0.0045327 Eh/α   predicted    -0.5617286E-04 ( -29.49%)
   displ. norm   :     0.3487733 α      lambda       -0.1216567E-03
   maximum displ.:     0.1313238 α      in ANC's #44, #6, #20, ...

........................................................................
.............................. CYCLE   52 ..............................
........................................................................

 iter      E             dE          RMSdq      gap      omega  full diag
   1   -291.0118395 -0.291012E+03  0.369E-02    1.51       0.0  T
   2   -291.0118414 -0.190996E-05  0.217E-02    1.51       1.0  T
   3   -291.0118406  0.826292E-06  0.301E-03    1.51       2.4  T
   4   -291.0118420 -0.135503E-05  0.912E-04    1.51       8.1  T
   5   -291.0118420 -0.395838E-07  0.510E-04    1.51      14.4  T
   6   -291.0118420 -0.121557E-07  0.191E-04    1.51      38.4  T
     SCC iter.                  ...        0 min,  0.352 sec
     gradient                   ...        0 min,  0.372 sec
 * total energy  :  -287.1778786 Eh     change       -0.9610493E-04 Eh
   gradient norm :     0.0045897 Eh/α   predicted    -0.6822809E-04 ( -29.01%)
   displ. norm   :     0.3849860 α      lambda       -0.1570195E-03
   maximum displ.:     0.1453330 α      in ANC's #6, #44, #20, ...

........................................................................
.............................. CYCLE   53 ..............................
........................................................................

 iter      E             dE          RMSdq      gap      omega  full diag
   1   -291.0137904 -0.291014E+03  0.410E-02    1.51       0.0  T
[...]
   114   6 C    3.924 --   116 O    1.753   117 O    1.155   113 C    0.974
   115   6 C    3.913 --   119 O    1.713   118 O    1.173   110 C    0.964
   116   8 O    2.052 --   114 C    1.753   117 O    0.172
   117   8 O    2.209 --   114 C    1.155   124 H    0.807   116 O    0.172
   118   8 O    2.215 --   115 C    1.173   125 H    0.792   119 O    0.162
   119   8 O    2.038 --   115 C    1.713   118 O    0.162
   120   1 H    0.995 --   108 C    0.965
   121   1 H    0.996 --   109 C    0.967
   122   1 H    0.997 --   111 C    0.964
   123   1 H    0.995 --   112 C    0.950
   124   1 H    0.875 --   117 O    0.807
   125   1 H    0.877 --   118 O    0.792
   126   6 C    3.949 --   127 O    1.641     1 N    1.276   128 C    0.986
   127   8 O    1.974 --   126 C    1.641     1 N    0.192
   128   6 C    3.992 --   126 C    0.986   129 H    0.980   131 H    0.968
                           130 H    0.963
   129   1 H    0.994 --   128 C    0.980
   130   1 H    0.996 --   128 C    0.963
   131   1 H    0.996 --   128 C    0.968
   132   6 C    3.948 --   133 O    1.659    21 N    1.258   134 C    0.984
   133   8 O    1.993 --   132 C    1.659    21 N    0.187
   134   6 C    3.994 --   132 C    0.984   135 H    0.983   136 H    0.974
                           137 H    0.966
   135   1 H    0.995 --   134 C    0.983
   136   1 H    0.997 --   134 C    0.974
   137   1 H    0.996 --   134 C    0.966
   138   6 C    3.947 --   139 O    1.650    48 N    1.268   140 C    0.985
   139   8 O    1.955 --   138 C    1.650    48 N    0.188
   140   6 C    3.991 --   138 C    0.985   142 H    0.985   143 H    0.964
                           141 H    0.957
   141   1 H    0.992 --   140 C    0.957
   142   1 H    0.997 --   140 C    0.985
   143   1 H    0.996 --   140 C    0.964
   144   6 C    3.949 --   145 O    1.717    72 N    1.213   146 C    0.978
   145   8 O    2.030 --   144 C    1.717    72 N    0.190
   146   6 C    3.992 --   149 H    0.982   144 C    0.978   147 H    0.973
                           148 H    0.969
   147   1 H    0.997 --   146 C    0.973
   148   1 H    0.996 --   146 C    0.969
   149   1 H    0.994 --   146 C    0.982
   150   6 C    3.947 --   151 O    1.709    91 N    1.215   152 C    0.983
   151   8 O    2.019 --   150 C    1.709    91 N    0.189
   152   6 C    3.992 --   150 C    0.983   154 H    0.982   155 H    0.972
                           153 H    0.967
   153   1 H    0.996 --   152 C    0.967
   154   1 H    0.993 --   152 C    0.982
   155   1 H    0.997 --   152 C    0.972
   156   7 N    3.461 --     3 C    1.286   158 C    1.007   157 H    0.912
                             4 O    0.206
   157   1 H    0.957 --   156 N    0.912
   158   6 C    3.968 --   156 N    1.007   161 H    0.978   160 H    0.977
                           159 H    0.977
   159   1 H    0.998 --   158 C    0.977
   160   1 H    0.994 --   158 C    0.977
   161   1 H    0.997 --   158 C    0.978
   162   7 N    3.452 --    33 C    1.279   164 C    1.006   163 H    0.905
                            34 O    0.204
   163   1 H    0.959 --   162 N    0.905
   164   6 C    3.966 --   162 N    1.006   166 H    0.978   167 H    0.978
                           165 H    0.976
   165   1 H    0.993 --   164 C    0.976
   166   1 H    0.998 --   164 C    0.978
   167   1 H    0.997 --   164 C    0.978
   168   7 N    3.453 --    50 C    1.264   170 C    1.001   169 H    0.944
                            51 O    0.205
   169   1 H    0.971 --   168 N    0.944
   170   6 C    3.959 --   168 N    1.001   172 H    0.978   173 H    0.975
                           171 H    0.974
   171   1 H    0.997 --   170 C    0.974
   172   1 H    0.997 --   170 C    0.978
   173   1 H    0.991 --   170 C    0.975
   174   7 N    3.470 --    74 C    1.294   176 C    0.997   175 H    0.940
                            75 O    0.195
   175   1 H    0.969 --   174 N    0.940
   176   6 C    3.956 --   174 N    0.997   178 H    0.981   177 H    0.973
                           179 H    0.970
   177   1 H    0.993 --   176 C    0.973
   178   1 H    0.996 --   176 C    0.981
   179   1 H    0.994 --   176 C    0.970
   180   7 N    3.449 --    93 C    1.263   182 C    1.001   181 H    0.939
                            94 O    0.204
   181   1 H    0.970 --   180 N    0.939
   182   6 C    3.957 --   180 N    1.001   183 H    0.977   185 H    0.976
                           184 H    0.975
   183   1 H    0.996 --   182 C    0.977
   184   1 H    0.991 --   182 C    0.975
   185   1 H    0.997 --   182 C    0.976
 ---------------------------------------------------------------------------

Topologies differ in bond orders
Writing corrected topology to xtbtopo.mol

molecular dipole:
                 x           y           z       tot (Debye)
 q only:       -2.690      -7.590      -0.995
   full:       -3.041     -10.782      -1.059      28.601
molecular quadrupole (traceless):
                xx          xy          yy          xz          yz          zz
 q only:     -139.147    -460.396     116.686    -258.779    -647.417      22.461
  q+dip:     -151.787    -663.034     108.892    -295.589    -923.759      42.895
   full:     -151.505    -663.216     107.578    -295.002    -925.164      43.927

           -------------------------------------------------
          |                Geometry Summary                 |
           -------------------------------------------------

      molecular mass/u    :     1317.5566168
   center of mass at/Å    :       23.5878378       3.2844929      31.1976815
  moments of inertia/u·Å² :        0.2584875E+05   0.3615503E+05   0.3936022E+05
rotational constants/cm⁻¹ :        0.6521643E-03   0.4662597E-03   0.4282911E-03

 * 166 selected distances

     #   Z          #   Z                                           value/Å
     1   7 N        2   6 C                                       1.4593500
     3   6 C        4   8 O                                       1.2171848
     2   6 C        5   6 C                                       1.5337541
     6   6 C        7   6 C                                       1.3897910
     6   6 C        8   6 C                                       1.3881128
     7   6 C        9   6 C                                       1.3828889
     8   6 C       10   6 C                                       1.3839506
     9   6 C       11   6 C                                       1.3846122
    10   6 C       11   6 C                                       1.3840296
     1   7 N       12   1 H                                       0.9832904
     2   6 C       13   1 H                                       1.0958782
     5   6 C       14   1 H                                       1.0905513
     5   6 C       15   1 H                                       1.0907488
     7   6 C       16   1 H                                       1.0819797
     8   6 C       17   1 H                                       1.0826464
     9   6 C       18   1 H                                       1.0823853
    10   6 C       19   1 H                                       1.0828918
    11   6 C       20   1 H                                       1.0825741
    21   7 N       22   6 C                                       1.4713740
    23   6 C       24   8 O                                       1.2236076
    22   6 C       25   6 C                                       1.5230946
    21   7 N       26   1 H                                       0.9802959
    22   6 C       27   1 H                                       1.0943586
    25   6 C       28   1 H                                       1.0580145
    25   6 C       29   1 H                                       1.0622189
    25   6 C       30   1 H                                       1.0610184
    23   6 C       31   7 N                                       1.3362849
    31   7 N       32   6 C                                       1.4615603
    33   6 C       34   8 O                                       1.2148669
    32   6 C       35   6 C                                       1.5243559
    35   6 C       36   6 C                                       1.5221151
    31   7 N       39   1 H                                       0.9833537
    32   6 C       40   1 H                                       1.0981003
    35   6 C       41   1 H                                       1.0910804
    35   6 C       42   1 H                                       1.0910237
    36   6 C       43   1 H                                       1.0904257
    36   6 C       44   1 H                                       1.0897277
    38   6 C       45   1 H                                       1.0859792
    38   6 C       46   1 H                                       1.0882710
    38   6 C       47   1 H                                       1.0877707
    48   7 N       49   6 C                                       1.4546733
    50   6 C       51   8 O                                       1.2132100
    52   6 C       53   6 C                                       1.4919209
    53   6 C       54   6 C                                       1.3663951
    53   6 C       55   6 C                                       1.4294509
    54   6 C       56   7 N                                       1.3665475
    55   6 C       57   6 C                                       1.4177443
    56   7 N       57   6 C                                       1.3646083
    55   6 C       58   6 C                                       1.3957803
    57   6 C       59   6 C                                       1.3889595
    58   6 C       60   6 C                                       1.3763281
    59   6 C       61   6 C                                       1.3772668
    60   6 C       61   6 C                                       1.3983608
    48   7 N       62   1 H                                       0.9849994
    49   6 C       63   1 H                                       1.0957445
    52   6 C       64   1 H                                       1.0913029
    52   6 C       65   1 H                                       1.0904987
    54   6 C       66   1 H                                       1.0747521
    56   7 N       67   1 H                                       1.0067947
    58   6 C       68   1 H                                       1.0815154
    59   6 C       69   1 H                                       1.0820163
    60   6 C       70   1 H                                       1.0822258
    61   6 C       71   1 H                                       1.0821897
    72   7 N       73   6 C                                       1.4543316
    74   6 C       75   8 O                                       1.2202465
    73   6 C       76   6 C                                       1.5397399 (max)
    76   6 C       77   6 C                                       1.5379684
    76   6 C       78   6 C                                       1.5199279
    77   6 C       79   6 C                                       1.5240741
    72   7 N       80   1 H                                       0.9815843
    73   6 C       81   1 H                                       1.0996497
    76   6 C       82   1 H                                       1.0941304
    77   6 C       83   1 H                                       1.0908864
    77   6 C       84   1 H                                       1.0921631
    78   6 C       85   1 H                                       1.0857492
    78   6 C       86   1 H                                       1.0865267
    78   6 C       87   1 H                                       1.0867001
    79   6 C       88   1 H                                       1.0881075
    79   6 C       89   1 H                                       1.0883109
    79   6 C       90   1 H                                       1.0862169
    91   7 N       92   6 C                                       1.4573560
    93   6 C       94   8 O                                       1.2125968
    95   6 C       96   6 C                                       1.4860678
    96   6 C       97   7 N                                       1.3708392
    96   6 C       98   6 C                                       1.3681292
    97   7 N       99   6 C                                       1.3503630
    98   6 C      100   7 N                                       1.3587203
    99   6 C      100   7 N                                       1.3042846
    91   7 N      101   1 H                                       0.9822265
    92   6 C      102   1 H                                       1.0946635
    95   6 C      103   1 H                                       1.0951499
    95   6 C      104   1 H                                       1.0918917
    97   7 N      105   1 H                                       1.0054601
    98   6 C      106   1 H                                       1.0746122
    99   6 C      107   1 H                                       1.0754892
   108   6 C      109   6 C                                       1.3821468
   109   6 C      110   6 C                                       1.3919249
   110   6 C      111   6 C                                       1.3891719
   111   6 C      112   6 C                                       1.3817517
   108   6 C      113   6 C                                       1.3932644
   112   6 C      113   6 C                                       1.3890260
   114   6 C      116   8 O                                       1.2032101
   114   6 C      117   8 O                                       1.3324323
   115   6 C      118   8 O                                       1.3238362
   115   6 C      119   8 O                                       1.2092110
   108   6 C      120   1 H                                       1.0790777
   109   6 C      121   1 H                                       1.0794190
   111   6 C      122   1 H                                       1.0785647
   112   6 C      123   1 H                                       1.0778715
   117   8 O      124   1 H                                       0.9801804 (min)
   118   8 O      125   1 H                                       0.9848697
     1   7 N      126   6 C                                       1.3459944
   126   6 C      127   8 O                                       1.2214895
   128   6 C      129   1 H                                       1.0866677
   128   6 C      130   1 H                                       1.0887607
   128   6 C      131   1 H                                       1.0854821
    21   7 N      132   6 C                                       1.3496654
   132   6 C      133   8 O                                       1.2162647
   134   6 C      135   1 H                                       1.0873106
   134   6 C      136   1 H                                       1.0877884
   134   6 C      137   1 H                                       1.0887570
    48   7 N      138   6 C                                       1.3481322
   138   6 C      139   8 O                                       1.2221448
   140   6 C      141   1 H                                       1.0885359
   140   6 C      142   1 H                                       1.0879077
   140   6 C      143   1 H                                       1.0884081
    72   7 N      144   6 C                                       1.3618438
   144   6 C      145   8 O                                       1.2083245
   146   6 C      147   1 H                                       1.0889819
   146   6 C      148   1 H                                       1.0885454
   146   6 C      149   1 H                                       1.0865306
    91   7 N      150   6 C                                       1.3614327
   150   6 C      151   8 O                                       1.2098143
   152   6 C      153   1 H                                       1.0890496
   152   6 C      154   1 H                                       1.0868356
   152   6 C      155   1 H                                       1.0886939
     3   6 C      156   7 N                                       1.3433549
   156   7 N      157   1 H                                       0.9861501
   156   7 N      158   6 C                                       1.4416871
   158   6 C      159   1 H                                       1.0914959
   158   6 C      160   1 H                                       1.0893557
   158   6 C      161   1 H                                       1.0909966
    33   6 C      162   7 N                                       1.3437743
   162   7 N      163   1 H                                       0.9837047
   162   7 N      164   6 C                                       1.4430560
   164   6 C      165   1 H                                       1.0889083
   164   6 C      166   1 H                                       1.0910299
   164   6 C      167   1 H                                       1.0907185
    50   6 C      168   7 N                                       1.3469236
   168   7 N      169   1 H                                       0.9813340
   168   7 N      170   6 C                                       1.4439091
   170   6 C      171   1 H                                       1.0912779
   170   6 C      172   1 H                                       1.0906339
   170   6 C      173   1 H                                       1.0888031
    74   6 C      174   7 N                                       1.3424822
   174   7 N      175   1 H                                       0.9818053
   174   7 N      176   6 C                                       1.4473191
   176   6 C      177   1 H                                       1.0886833
   176   6 C      178   1 H                                       1.0885757
   176   6 C      179   1 H                                       1.0926450
    93   6 C      180   7 N                                       1.3476855
   180   7 N      181   1 H                                       0.9817001
   180   7 N      182   6 C                                       1.4453525
   182   6 C      183   1 H                                       1.0905853
   182   6 C      184   1 H                                       1.0889451
   182   6 C      185   1 H                                       1.0907423

 * 6 distinct bonds (by element types)

   Z      Z             #   av. dist./Å        max./Å        min./Å
   1 H    6 C          77     1.0868146     1.0996497     1.0580145
   6 C    6 C          31     1.4310356     1.5397399     1.3663951
   1 H    7 N          13     0.9863615     1.0067947     0.9802959
   6 C    7 N          28     1.3901038     1.4713740     1.3042846
   1 H    8 O           2     0.9825250     0.9848697     0.9801804
   6 C    8 O          15     1.2298960     1.3324323     1.2032101


optimized geometry written to: xtbopt.mol


           -------------------------------------------------
          | TOTAL ENERGY             -287.180761914941 Eh   |
          | GRADIENT NORM               0.001574040100 Eh/α |
          | HOMO-LUMO GAP               1.578730613232 eV   |
           -------------------------------------------------

------------------------------------------------------------------------
 * finished run on 2024/06/15 at 05:56:35.479     
------------------------------------------------------------------------
 total:
 * wall-time:     0 d,  0 h,  1 min, 58.445 sec
 *  cpu-time:     0 d,  0 h,  1 min, 56.479 sec
 * ratio c/w:     0.983 speedup
 SCF:
 * wall-time:     0 d,  0 h,  0 min,  1.564 sec
 *  cpu-time:     0 d,  0 h,  0 min,  1.316 sec
 * ratio c/w:     0.841 speedup
 ANC optimizer:
 * wall-time:     0 d,  0 h,  1 min, 55.516 sec
 *  cpu-time:     0 d,  0 h,  1 min, 55.052 sec
 * ratio c/w:     0.996 speedup

