      -----------------------------------------------------------      
     |                   =====================                   |     
     |                           x T B                           |     
     |                   =====================                   |     
     |                         S. Grimme                         |     
     |          Mulliken Center for Theoretical Chemistry        |     
     |                    University of Bonn                     |     
      -----------------------------------------------------------      

   * xtb version 6.6.1 (8d0f1dd) compiled by 'stahn@M-Bot' on 2023-08-01

   xtb is free software: you can redistribute it and/or modify it under
   the terms of the GNU Lesser General Public License as published by
   the Free Software Foundation, either version 3 of the License, or
   (at your option) any later version.
   
   xtb is distributed in the hope that it will be useful,
   but WITHOUT ANY WARRANTY; without even the implied warranty of
   MERCHANTABILITY or FITNESS FOR A PARTICULAR PURPOSE.  See the
   GNU Lesser General Public License for more details.
   
   Cite this work as:
   * C. Bannwarth, E. Caldeweyher, S. Ehlert, A. Hansen, P. Pracht,
     J. Seibert, S. Spicher, S. Grimme, WIREs Comput. Mol. Sci., 2020, 11,
     e01493. DOI: 10.1002/wcms.1493
   
   for GFN2-xTB:
   * C. Bannwarth, S. Ehlert and S. Grimme., J. Chem. Theory Comput., 2019,
     15, 1652-1671. DOI: 10.1021/acs.jctc.8b01176
   for GFN1-xTB:
   * S. Grimme, C. Bannwarth, P. Shushkov, J. Chem. Theory Comput., 2017,
     13, 1989-2009. DOI: 10.1021/acs.jctc.7b00118
   for GFN0-xTB:
   * P. Pracht, E. Caldeweyher, S. Ehlert, S. Grimme, ChemRxiv, 2019, preprint.
     DOI: 10.26434/chemrxiv.8326202.v1
   for GFN-FF:
   * S. Spicher and S. Grimme, Angew. Chem. Int. Ed., 2020, 59, 15665-15673.
     DOI: 10.1002/anie.202004239
   
   for ALPB and GBSA implicit solvation:
   * S. Ehlert, M. Stahn, S. Spicher, S. Grimme, J. Chem. Theory Comput.,
     2021, 17, 4250-4261. DOI: 10.1021/acs.jctc.1c00471
   
   for DFT-D4:
   * E. Caldeweyher, C. Bannwarth and S. Grimme, J. Chem. Phys., 2017,
     147, 034112. DOI: 10.1063/1.4993215
   * E. Caldeweyher, S. Ehlert, A. Hansen, H. Neugebauer, S. Spicher,
     C. Bannwarth and S. Grimme, J. Chem. Phys., 2019, 150, 154122.
     DOI: 10.1063/1.5090222
   * E. Caldeweyher, J.-M. Mewes, S. Ehlert and S. Grimme, Phys. Chem. Chem. Phys.
     2020, 22, 8499-8512. DOI: 10.1039/D0CP00502A
   
   for sTDA-xTB:
   * S. Grimme and C. Bannwarth, J. Chem. Phys., 2016, 145, 054103.
     DOI: 10.1063/1.4959605
   
   in the mass-spec context:
   * V. Asgeirsson, C. Bauer and S. Grimme, Chem. Sci., 2017, 8, 4879.
     DOI: 10.1039/c7sc00601b
   * J. Koopman and S. Grimme, ACS Omega 2019, 4, 12, 15120-15133.
     DOI: 10.1021/acsomega.9b02011
   
   for metadynamics refer to:
   * S. Grimme, J. Chem. Theory Comput., 2019, 155, 2847-2862
     DOI: 10.1021/acs.jctc.9b00143
   
   for SPH calculations refer to:
   * S. Spicher and S. Grimme, J. Chem. Theory Comput., 2021, 17, 1701-1714
     DOI: 10.1021/acs.jctc.0c01306
   
   with help from (in alphabetical order)
   P. Atkinson, C. Bannwarth, F. Bohle, G. Brandenburg, E. Caldeweyher
   M. Checinski, S. Dohm, S. Ehlert, S. Ehrlich, I. Gerasimov, C. Hölzer
   A. Katbashev, J. Koopman, C. Lavigne, S. Lehtola, F. März, M. Müller,
   F. Musil, H. Neugebauer, J. Pisarek, C. Plett, P. Pracht, F. Pultar,
   J. Seibert, P. Shushkov, S. Spicher, M. Stahn, M. Steiner, T. Strunk,
   J. Stückrath, T. Rose, and J. Unsleber
   
 * started run on 2024/06/10 at 18:48:40.461     

           -------------------------------------------------
          |                Calculation Setup                |
           -------------------------------------------------

          program call               : /home/jurichc/xtb-6.6.1/bin/xtb --chrg 0 --iterations 1000 --parallel 1 --norestart --input /panfs/accrepfs.vampire/data/yang_lab/jurichc/enzy_rcd_benchmarking/enzy_rcd_no_qm/8brb/QM_OPT/xtb_settings.inp --opt normal /panfs/accrepfs.vampire/data/yang_lab/jurichc/enzy_rcd_benchmarking/enzy_rcd_no_qm/8brb/QM_OPT/xtb_coords.mol
          hostname                   : cn1436
          coordinate file            : /panfs/accrepfs.vampire/data/yang_lab/jurichc/enzy_rcd_benchmarking/enzy_rcd_no_qm/8brb/QM_OPT/xtb_coords.mol
          omp threads                :                     1

   ID    Z sym.   atoms
    1    7 N      1, 21, 31, 48, 56, 72, 91, 97, 100, 156, 162, 168, 174, 180
    2    6 C      2, 3, 5-11, 22, 23, 25, 32, 33, 35, 36, 38, 49, 50, 52-55,
                  57-61, 73, 74, 76-79, 92, 93, 95, 96, 98, 99, 108-115, 126,
                  128, 132, 134, 138, 140, 144, 146, 150, 152, 158, 164, 170,
                  176, 182
    3    8 O      4, 24, 34, 51, 75, 94, 116-119, 127, 133, 139, 145, 151
    4    1 H      12-20, 26-30, 39-47, 62-71, 80-90, 101-107, 120-125,
                  129-131, 135-137, 141-143, 147-149, 153-155, 157, 159-161,
                  163, 165-167, 169, 171-173, 175, 177-179, 181, 183-185
    5   16 S      37
constraining bond 100 118 to    2.8000000 Å, actual value:    3.0499806 Å
constraining angle 98 100 118 to  118.1000000°, actual value:  121.5382672°
constraining angle 115 118 100 to  125.4000000°, actual value:  111.7059769°
constraining bond 12 1 to    0.8600000 Å, actual value:    0.8595220 Å
constraining bond 13 2 to    1.0900000 Å, actual value:    1.0901895 Å
constraining bond 14 5 to    1.0890000 Å, actual value:    1.0885648 Å
constraining bond 15 5 to    1.0890000 Å, actual value:    1.0892191 Å
constraining bond 16 7 to    1.0900000 Å, actual value:    1.0904023 Å
constraining bond 17 8 to    1.0910000 Å, actual value:    1.0912292 Å
constraining bond 18 9 to    1.0890000 Å, actual value:    1.0891695 Å
constraining bond 19 10 to    1.0900000 Å, actual value:    1.0900295 Å
constraining bond 20 11 to    1.0890000 Å, actual value:    1.0889285 Å
constraining bond 26 21 to    0.8600000 Å, actual value:    0.8598861 Å
constraining bond 27 22 to    1.0900000 Å, actual value:    1.0900914 Å
constraining bond 28 25 to    0.9700000 Å, actual value:    0.9696810 Å
constraining bond 29 25 to    0.9690000 Å, actual value:    0.9694773 Å
constraining bond 30 25 to    0.9700000 Å, actual value:    0.9696696 Å
constraining bond 39 31 to    0.8600000 Å, actual value:    0.8604244 Å
constraining bond 40 32 to    1.0890000 Å, actual value:    1.0892044 Å
constraining bond 41 35 to    1.0890000 Å, actual value:    1.0888624 Å
constraining bond 42 35 to    1.0910000 Å, actual value:    1.0908823 Å
constraining bond 43 36 to    1.0890000 Å, actual value:    1.0891287 Å
constraining bond 44 36 to    1.0890000 Å, actual value:    1.0892062 Å
constraining bond 45 38 to    1.0910000 Å, actual value:    1.0906412 Å
constraining bond 46 38 to    1.0910000 Å, actual value:    1.0905211 Å
constraining bond 47 38 to    1.0910000 Å, actual value:    1.0905866 Å
constraining bond 62 48 to    0.8600000 Å, actual value:    0.8595476 Å
constraining bond 63 49 to    1.0890000 Å, actual value:    1.0891966 Å
constraining bond 64 52 to    1.0910000 Å, actual value:    1.0910853 Å
constraining bond 65 52 to    1.0890000 Å, actual value:    1.0892939 Å
constraining bond 66 54 to    1.0880000 Å, actual value:    1.0884789 Å
constraining bond 67 56 to    1.0100000 Å, actual value:    1.0095678 Å
constraining bond 68 58 to    1.0890000 Å, actual value:    1.0889372 Å
constraining bond 69 59 to    1.0900000 Å, actual value:    1.0899019 Å
constraining bond 70 60 to    1.0900000 Å, actual value:    1.0900157 Å
constraining bond 71 61 to    1.0910000 Å, actual value:    1.0907654 Å
constraining bond 80 72 to    0.8610000 Å, actual value:    0.8612236 Å
constraining bond 81 73 to    1.0900000 Å, actual value:    1.0896578 Å
constraining bond 82 76 to    1.0900000 Å, actual value:    1.0897386 Å
constraining bond 83 77 to    1.0890000 Å, actual value:    1.0889693 Å
constraining bond 84 77 to    1.0900000 Å, actual value:    1.0899111 Å
constraining bond 85 78 to    1.0890000 Å, actual value:    1.0892852 Å
constraining bond 86 78 to    1.0890000 Å, actual value:    1.0893646 Å
constraining bond 87 78 to    1.0900000 Å, actual value:    1.0902134 Å
constraining bond 88 79 to    1.0910000 Å, actual value:    1.0907384 Å
constraining bond 89 79 to    1.0910000 Å, actual value:    1.0912439 Å
constraining bond 90 79 to    1.0890000 Å, actual value:    1.0887815 Å
constraining bond 101 91 to    0.8610000 Å, actual value:    0.8606440 Å
constraining bond 102 92 to    1.0890000 Å, actual value:    1.0889606 Å
constraining bond 103 95 to    1.0900000 Å, actual value:    1.0900065 Å
constraining bond 104 95 to    1.0900000 Å, actual value:    1.0900657 Å
constraining bond 105 97 to    1.0000000 Å, actual value:    0.9998446 Å
constraining bond 106 98 to    1.0900000 Å, actual value:    1.0904518 Å
constraining bond 107 99 to    1.0900000 Å, actual value:    1.0895670 Å
constraining bond 120 108 to    1.0790000 Å, actual value:    1.0793522 Å
constraining bond 121 109 to    1.0790000 Å, actual value:    1.0790543 Å
constraining bond 122 111 to    1.0800000 Å, actual value:    1.0795278 Å
constraining bond 123 112 to    1.0810000 Å, actual value:    1.0805731 Å
constraining bond 124 117 to    0.9660000 Å, actual value:    0.9663365 Å
constraining bond 125 118 to    0.9670000 Å, actual value:    0.9666334 Å
constraining bond 129 128 to    1.0910000 Å, actual value:    1.0914331 Å
constraining bond 130 128 to    1.0900000 Å, actual value:    1.0901606 Å
constraining bond 131 128 to    1.0900000 Å, actual value:    1.0901047 Å
constraining bond 135 134 to    1.0910000 Å, actual value:    1.0902083 Å
constraining bond 136 134 to    1.0900000 Å, actual value:    1.0912755 Å
constraining bond 137 134 to    1.0900000 Å, actual value:    1.0908837 Å
constraining bond 141 140 to    1.0910000 Å, actual value:    1.0907879 Å
constraining bond 142 140 to    1.0900000 Å, actual value:    1.0910973 Å
constraining bond 143 140 to    1.0900000 Å, actual value:    1.0896230 Å
constraining bond 147 146 to    1.0910000 Å, actual value:    1.0908617 Å
constraining bond 148 146 to    1.0900000 Å, actual value:    1.0902418 Å
constraining bond 149 146 to    1.0900000 Å, actual value:    1.0901258 Å
constraining bond 153 152 to    1.0910000 Å, actual value:    1.0902652 Å
constraining bond 154 152 to    1.0900000 Å, actual value:    1.0905536 Å
constraining bond 155 152 to    1.0900000 Å, actual value:    1.0898565 Å
constraining bond 157 156 to    0.8590000 Å, actual value:    0.8592852 Å
constraining bond 159 158 to    1.0900000 Å, actual value:    1.0889363 Å
constraining bond 160 158 to    1.0900000 Å, actual value:    1.0898859 Å
constraining bond 161 158 to    1.0900000 Å, actual value:    1.0906536 Å
constraining bond 163 162 to    0.8600000 Å, actual value:    0.8601785 Å
constraining bond 165 164 to    1.0900000 Å, actual value:    1.0892659 Å
constraining bond 166 164 to    1.0900000 Å, actual value:    1.0898634 Å
constraining bond 167 164 to    1.0900000 Å, actual value:    1.0898322 Å
constraining bond 169 168 to    0.8600000 Å, actual value:    0.8599937 Å
constraining bond 171 170 to    1.0900000 Å, actual value:    1.0897992 Å
constraining bond 172 170 to    1.0900000 Å, actual value:    1.0894541 Å
constraining bond 173 170 to    1.0900000 Å, actual value:    1.0894100 Å
constraining bond 175 174 to    0.8610000 Å, actual value:    0.8607184 Å
constraining bond 177 176 to    1.0900000 Å, actual value:    1.0896739 Å
constraining bond 178 176 to    1.0900000 Å, actual value:    1.0894830 Å
constraining bond 179 176 to    1.0900000 Å, actual value:    1.0903881 Å
constraining bond 181 180 to    0.8600000 Å, actual value:    0.8596919 Å
constraining bond 183 182 to    1.0900000 Å, actual value:    1.0893990 Å
constraining bond 184 182 to    1.0900000 Å, actual value:    1.0900267 Å
constraining bond 185 182 to    1.0900000 Å, actual value:    1.0904335 Å

molecular fragmentation (1/2 indicates fragments):
111111111111111111112222222222222222222222222222222222222222222222222222
222222222222222222222222222222222222222222222222222221111112222222222222
22222222222111111222222222222222222222222
# atoms in fragment 1/2:    32   153
 fragment masses (1/2) :      220.27     1097.29
CMA distance (Bohr)    :  14.449
constraining FC (au)   :  0.0500

           -------------------------------------------------
          |                 G F N 2 - x T B                 |
           -------------------------------------------------

        Reference                      10.1021/acs.jctc.8b01176
      * Hamiltonian:
        H0-scaling (s, p, d)           1.850000    2.230000    2.230000
        zeta-weighting                 0.500000
      * Dispersion:
        s8                             2.700000
        a1                             0.520000
        a2                             5.000000
        s9                             5.000000
      * Repulsion:
        kExp                           1.500000    1.000000
        rExp                           1.000000
      * Coulomb:
        alpha                          2.000000
        third order                    shell-resolved
        anisotropic                    true
        a3                             3.000000
        a5                             4.000000
        cn-shift                       1.200000
        cn-exp                         4.000000
        max-rad                        5.000000


          ...................................................
          :                      SETUP                      :
          :.................................................:
          :  # basis functions                 470          :
          :  # atomic orbitals                 469          :
          :  # shells                          279          :
          :  # electrons                       510          :
          :  max. iterations                  1000          :
          :  Hamiltonian                  GFN2-xTB          :
          :  restarted?                      false          :
          :  GBSA solvation                  false          :
          :  PC potential                    false          :
          :  electronic temp.          300.0000000     K    :
          :  accuracy                    1.0000000          :
          :  -> integral cutoff          0.2500000E+02      :
          :  -> integral neglect         0.1000000E-07      :
          :  -> SCF convergence          0.1000000E-05 Eh   :
          :  -> wf. convergence          0.1000000E-03 e    :
          :  Broyden damping             0.4000000          :
          ...................................................

 iter      E             dE          RMSdq      gap      omega  full diag
   1   -290.1090000 -0.290109E+03  0.431E+00    2.49       0.0  T
   2   -291.1188222 -0.100982E+01  0.239E+00    1.66       1.0  T
   3   -291.1655493 -0.467271E-01  0.132E+00    1.55       1.0  T
   4   -291.1587422  0.680716E-02  0.388E-01    1.03       1.0  T
   5   -291.1809990 -0.222568E-01  0.127E-01    1.10       1.0  T
   6   -291.1816136 -0.614578E-03  0.699E-02    1.13       1.0  T
   7   -291.1819547 -0.341085E-03  0.285E-02    1.15       1.0  T
   8   -291.1819724 -0.176880E-04  0.133E-02    1.16       1.0  T
   9   -291.1819866 -0.142167E-04  0.555E-03    1.16       1.3  T
  10   -291.1819877 -0.110450E-05  0.199E-03    1.16       3.7  T
  11   -291.1819878 -0.127817E-06  0.931E-04    1.16       7.9  T
  12   -291.1819879 -0.391866E-07  0.405E-04    1.16      18.2  T

   *** convergence criteria satisfied after 12 iterations ***

         #    Occupation            Energy/Eh            Energy/eV
      -------------------------------------------------------------
         1        2.0000           -0.7558280             -20.5671
       ...           ...                  ...                  ...
       249        2.0000           -0.3844818             -10.4623
       250        2.0000           -0.3715515             -10.1104
       251        2.0000           -0.3676258             -10.0036
       252        2.0000           -0.3639254              -9.9029
       253        2.0000           -0.3638398              -9.9006
       254        2.0000           -0.3611340              -9.8270
       255        2.0000           -0.3459991              -9.4151 (HOMO)
       256                         -0.3034407              -8.2570 (LUMO)
       257                         -0.2768754              -7.5342
       258                         -0.2641639              -7.1883
       259                         -0.2567034              -6.9853
       260                         -0.2506224              -6.8198
       ...                                ...                  ...
       469                          0.7294044              19.8481
      -------------------------------------------------------------
                  HL-Gap            0.0425584 Eh            1.1581 eV
             Fermi-level           -0.3247199 Eh           -8.8361 eV

 SCC (total)                   0 d,  0 h,  0 min,  2.130 sec
 SCC setup                      ...        0 min,  0.019 sec (  0.884%)
 Dispersion                     ...        0 min,  0.013 sec (  0.611%)
 classical contributions        ...        0 min,  0.002 sec (  0.101%)
 integral evaluation            ...        0 min,  0.266 sec ( 12.478%)
 iterations                     ...        0 min,  1.187 sec ( 55.753%)
 molecular gradient             ...        0 min,  0.630 sec ( 29.573%)
 printout                       ...        0 min,  0.013 sec (  0.597%)

         :::::::::::::::::::::::::::::::::::::::::::::::::::::
         ::                     SUMMARY                     ::
         :::::::::::::::::::::::::::::::::::::::::::::::::::::
         :: total energy            -286.774604148335 Eh    ::
         :: gradient norm              1.040808187482 Eh/a0 ::
         :: HOMO-LUMO gap              1.158072753986 eV    ::
         ::.................................................::
         :: SCC energy              -291.181987864835 Eh    ::
         :: -> isotropic ES            0.582548738293 Eh    ::
         :: -> anisotropic ES          0.025432111927 Eh    ::
         :: -> anisotropic XC          0.091630610423 Eh    ::
         :: -> dispersion             -0.238799767558 Eh    ::
         :: repulsion energy           4.375510011303 Eh    ::
         :: add. restraining           0.014196712120 Eh    ::
         :: total charge              -0.000000000000 e     ::
         :::::::::::::::::::::::::::::::::::::::::::::::::::::

      ----------------------------------------------------------- 
     |                   =====================                   |
     |                        A N C O P T                        |
     |                   =====================                   |
     |               Approximate Normal Coordinate               |
     |                Rational Function Optimizer                |
      ----------------------------------------------------------- 

          ...................................................
          :                      SETUP                      :
          :.................................................:
          :   optimization level            normal          :
          :   max. optcycles                   555          :
          :   ANC micro-cycles                  20          :
          :   degrees of freedom               498          :
          :.................................................:
          :   RF solver                   davidson          :
          :   write xtbopt.log                true          :
          :   linear?                        false          :
          :   energy convergence         0.5000000E-05 Eh   :
          :   grad. convergence          0.1000000E-02 Eh/α :
          :   maxmium RF displ.          1.0000000          :
          :   Hlow (freq-cutoff)         0.1000000E-01      :
          :   Hmax (freq-cutoff)         5.0000000          :
          :   S6 in model hess.         20.0000000          :
          ...................................................

generating ANC from model Hessian ...
Using Lindh-Hessian (1995)
 Shifting diagonal of input Hessian by   9.883926236723059E-003
 Lowest  eigenvalues of input Hessian
   -0.000000   -0.000000   -0.000000   -0.000000   -0.000000   -0.000000
   -0.000000   -0.000000   -0.000000   -0.000000   -0.000000   -0.000000
   -0.000000   -0.000000   -0.000000   -0.000000   -0.000000   -0.000000
 Highest eigenvalues
    2.293465    2.297938    2.299584    2.302490    2.306360    2.314554
 

........................................................................
.............................. CYCLE    1 ..............................
........................................................................

 iter      E             dE          RMSdq      gap      omega  full diag
   1   -291.1819879 -0.291182E+03  0.157E-04    1.16       0.0  T
   2   -291.1819879 -0.643126E-09  0.100E-04    1.16      73.5  T
   3   -291.1819879 -0.147679E-09  0.689E-05    1.16     106.7  T
     SCC iter.                  ...        0 min,  0.283 sec
     gradient                   ...        0 min,  0.616 sec
 * total energy  :  -286.7746042 Eh     change       -0.7001574E-08 Eh
   gradient norm :     0.9076048 Eh/α   predicted     0.0000000E+00 (-100.00%)
   displ. norm   :     0.5569998 α      lambda       -0.4636529E+00
   maximum displ.:     0.2205033 α      in ANC's #384, #382, #385, ...

........................................................................
.............................. CYCLE    2 ..............................
........................................................................

 iter      E             dE          RMSdq      gap      omega  full diag
   1   -291.0776106 -0.291078E+03  0.205E-01    1.22       0.0  T
   2   -291.0785943 -0.983698E-03  0.123E-01    1.21       1.0  T
   3   -291.0786251 -0.307232E-04  0.509E-02    1.20       1.0  T
   4   -291.0786905 -0.654856E-04  0.129E-02    1.20       1.0  T
   5   -291.0787053 -0.147629E-04  0.611E-03    1.20       1.2  T
   6   -291.0787070 -0.172597E-05  0.312E-03    1.20       2.4  T
   7   -291.0787078 -0.803146E-06  0.101E-03    1.20       7.2  T
   8   -291.0787079 -0.267670E-07  0.472E-04    1.20      15.6  T
   9   -291.0787079 -0.224218E-07  0.172E-04    1.20      42.8  T
     SCC iter.                  ...        0 min,  0.820 sec
     gradient                   ...        0 min,  0.618 sec
 * total energy  :  -287.0566684 Eh     change       -0.2820642E+00 Eh
   gradient norm :     0.2511817 Eh/α   predicted    -0.3037619E+00 (   7.69%)
   displ. norm   :     0.4765287 α      lambda       -0.8399612E-01
   maximum displ.:     0.1104986 α      in ANC's #125, #216, #217, ...

........................................................................
.............................. CYCLE    3 ..............................
........................................................................

 iter      E             dE          RMSdq      gap      omega  full diag
   1   -291.0265845 -0.291027E+03  0.148E-01    1.27       0.0  T
   2   -291.0275954 -0.101094E-02  0.936E-02    1.27       1.0  T
   3   -291.0276615 -0.660601E-04  0.467E-02    1.27       1.0  T
   4   -291.0276696 -0.813634E-05  0.101E-02    1.26       1.0  T
   5   -291.0276808 -0.112068E-04  0.392E-03    1.26       1.9  T
   6   -291.0276815 -0.640636E-06  0.198E-03    1.26       3.7  T
   7   -291.0276818 -0.335061E-06  0.720E-04    1.26      10.2  T
   8   -291.0276818 -0.645707E-08  0.374E-04    1.26      19.7  T
     SCC iter.                  ...        0 min,  0.669 sec
     gradient                   ...        0 min,  0.556 sec
 * total energy  :  -287.1168563 Eh     change       -0.6018793E-01 Eh
   gradient norm :     0.0945174 Eh/α   predicted    -0.5164397E-01 ( -14.20%)
   displ. norm   :     0.4984528 α      lambda       -0.3237220E-01
   maximum displ.:     0.1202761 α      in ANC's #125, #216, #114, ...

........................................................................
.............................. CYCLE    4 ..............................
........................................................................

 iter      E             dE          RMSdq      gap      omega  full diag
   1   -290.9880723 -0.290988E+03  0.123E-01    1.32       0.0  T
   2   -290.9887622 -0.689866E-03  0.772E-02    1.32       1.0  T
   3   -290.9888064 -0.442052E-04  0.387E-02    1.33       1.0  T
   4   -290.9888101 -0.371167E-05  0.891E-03    1.32       1.0  T
   5   -290.9888203 -0.102202E-04  0.309E-03    1.32       2.4  T
   6   -290.9888208 -0.417208E-06  0.159E-03    1.32       4.6  T
   7   -290.9888209 -0.146107E-06  0.577E-04    1.32      12.7  T
   8   -290.9888209 -0.337684E-08  0.296E-04    1.32      24.8  T
     SCC iter.                  ...        0 min,  0.695 sec
     gradient                   ...        0 min,  0.592 sec
 * total energy  :  -287.1388712 Eh     change       -0.2201492E-01 Eh
   gradient norm :     0.0352480 Eh/α   predicted    -0.2020764E-01 (  -8.21%)
   displ. norm   :     0.4743687 α      lambda       -0.1066520E-01
   maximum displ.:     0.1001179 α      in ANC's #76, #104, #51, ...

........................................................................
.............................. CYCLE    5 ..............................
........................................................................

 iter      E             dE          RMSdq      gap      omega  full diag
   1   -290.9727075 -0.290973E+03  0.937E-02    1.35       0.0  T
   2   -290.9729079 -0.200430E-03  0.554E-02    1.36       1.0  T
   3   -290.9729126 -0.473132E-05  0.223E-02    1.36       1.0  T
   4   -290.9729233 -0.106452E-04  0.512E-03    1.36       1.4  T
   5   -290.9729260 -0.273446E-05  0.227E-03    1.36       3.2  T
   6   -290.9729263 -0.268062E-06  0.115E-03    1.36       6.4  T
   7   -290.9729263 -0.638520E-07  0.427E-04    1.36      17.2  T
   8   -290.9729263 -0.865248E-08  0.187E-04    1.36      39.3  T
     SCC iter.                  ...        0 min,  0.704 sec
     gradient                   ...        0 min,  0.585 sec
 * total energy  :  -287.1464375 Eh     change       -0.7566267E-02 Eh
   gradient norm :     0.0331038 Eh/α   predicted    -0.6532670E-02 ( -13.66%)
   displ. norm   :     0.4885050 α      lambda       -0.5501392E-02
   maximum displ.:     0.1262244 α      in ANC's #23, #51, #17, ...

........................................................................
.............................. CYCLE    6 ..............................
........................................................................

 iter      E             dE          RMSdq      gap      omega  full diag
   1   -290.9715575 -0.290972E+03  0.808E-02    1.37       0.0  T
   2   -290.9716332 -0.757627E-04  0.463E-02    1.38       1.0  T
   3   -290.9716275  0.575272E-05  0.144E-02    1.38       1.0  T
   4   -290.9716387 -0.111581E-04  0.434E-03    1.38       1.7  T
   5   -290.9716411 -0.241599E-05  0.182E-03    1.38       4.0  T
   6   -290.9716413 -0.222564E-06  0.805E-04    1.38       9.1  T
   7   -290.9716413 -0.228723E-07  0.320E-04    1.38      23.0  T
     SCC iter.                  ...        0 min,  0.618 sec
     gradient                   ...        0 min,  0.587 sec
 * total energy  :  -287.1506432 Eh     change       -0.4205651E-02 Eh
   gradient norm :     0.0278538 Eh/α   predicted    -0.3407117E-02 ( -18.99%)
   displ. norm   :     0.5590863 α      lambda       -0.4397462E-02
   maximum displ.:     0.1538197 α      in ANC's #17, #23, #51, ...

........................................................................
.............................. CYCLE    7 ..............................
........................................................................

 iter      E             dE          RMSdq      gap      omega  full diag
   1   -290.9784301 -0.290978E+03  0.762E-02    1.39       0.0  T
   2   -290.9784697 -0.396074E-04  0.433E-02    1.39       1.0  T
   3   -290.9784594  0.103866E-04  0.122E-02    1.39       1.0  T
   4   -290.9784739 -0.145295E-04  0.422E-03    1.39       1.7  T
   5   -290.9784759 -0.204095E-05  0.155E-03    1.39       4.7  T
   6   -290.9784760 -0.935195E-07  0.683E-04    1.39      10.8  T
   7   -290.9784760 -0.221829E-07  0.294E-04    1.39      25.0  T
     SCC iter.                  ...        0 min,  0.619 sec
     gradient                   ...        0 min,  0.622 sec
 * total energy  :  -287.1541593 Eh     change       -0.3516140E-02 Eh
   gradient norm :     0.0195190 Eh/α   predicted    -0.2886072E-02 ( -17.92%)
   displ. norm   :     0.6253403 α      lambda       -0.3867242E-02
   maximum displ.:     0.1913868 α      in ANC's #17, #23, #1, ...

........................................................................
.............................. CYCLE    8 ..............................
........................................................................

 iter      E             dE          RMSdq      gap      omega  full diag
   1   -290.9877085 -0.290988E+03  0.765E-02    1.40       0.0  T
   2   -290.9877425 -0.340159E-04  0.440E-02    1.40       1.0  T
   3   -290.9877296  0.129054E-04  0.123E-02    1.40       1.0  T
   4   -290.9877467 -0.171148E-04  0.423E-03    1.40       1.7  T
   5   -290.9877488 -0.207564E-05  0.154E-03    1.40       4.8  T
   6   -290.9877488 -0.662121E-07  0.718E-04    1.40      10.2  T
   7   -290.9877489 -0.343919E-07  0.310E-04    1.40      23.7  T
     SCC iter.                  ...        0 min,  0.628 sec
     gradient                   ...        0 min,  0.589 sec
 * total energy  :  -287.1572647 Eh     change       -0.3105430E-02 Eh
   gradient norm :     0.0151761 Eh/α   predicted    -0.2689764E-02 ( -13.39%)
   displ. norm   :     0.6651208 α      lambda       -0.3299014E-02
   maximum displ.:     0.2130087 α      in ANC's #17, #1, #5, ...

........................................................................
.............................. CYCLE    9 ..............................
........................................................................

 iter      E             dE          RMSdq      gap      omega  full diag
   1   -290.9950716 -0.290995E+03  0.762E-02    1.40       0.0  T
   2   -290.9951032 -0.316573E-04  0.442E-02    1.41       1.0  T
   3   -290.9950788  0.244202E-04  0.145E-02    1.40       1.0  T
   4   -290.9951110 -0.321651E-04  0.353E-03    1.40       2.1  T
   5   -290.9951125 -0.146669E-05  0.142E-03    1.40       5.2  T
   6   -290.9951125 -0.459440E-07  0.579E-04    1.40      12.7  T
   7   -290.9951125 -0.221968E-07  0.260E-04    1.40      28.3  T
     SCC iter.                  ...        0 min,  0.572 sec
     gradient                   ...        0 min,  0.550 sec
 * total energy  :  -287.1597474 Eh     change       -0.2482689E-02 Eh
   gradient norm :     0.0233015 Eh/α   predicted    -0.2379227E-02 (  -4.17%)
   displ. norm   :     0.6627211 α      lambda       -0.2818052E-02
   maximum displ.:     0.2313903 α      in ANC's #17, #1, #5, ...

........................................................................
.............................. CYCLE   10 ..............................
........................................................................

 iter      E             dE          RMSdq      gap      omega  full diag
   1   -290.9990251 -0.290999E+03  0.749E-02    1.41       0.0  T
   2   -290.9990435 -0.184141E-04  0.437E-02    1.41       1.0  T
   3   -290.9990366  0.691891E-05  0.921E-03    1.41       1.0  T
   4   -290.9990475 -0.108917E-04  0.278E-03    1.41       2.6  T
   5   -290.9990481 -0.642322E-06  0.139E-03    1.41       5.3  T
   6   -290.9990482 -0.524046E-07  0.572E-04    1.41      12.8  T
   7   -290.9990482 -0.228425E-07  0.275E-04    1.41      26.7  T
     SCC iter.                  ...        0 min,  0.581 sec
     gradient                   ...        0 min,  0.562 sec
 * total energy  :  -287.1617251 Eh     change       -0.1977648E-02 Eh
   gradient norm :     0.0193193 Eh/α   predicted    -0.2027893E-02 (   2.54%)
   displ. norm   :     0.6264526 α      lambda       -0.2150526E-02
   maximum displ.:     0.2292252 α      in ANC's #17, #1, #5, ...

........................................................................
.............................. CYCLE   11 ..............................
........................................................................

 iter      E             dE          RMSdq      gap      omega  full diag
   1   -290.9980416 -0.290998E+03  0.664E-02    1.42       0.0  T
   2   -290.9980591 -0.174792E-04  0.384E-02    1.42       1.0  T
   3   -290.9980411  0.179604E-04  0.119E-02    1.42       1.0  T
   4   -290.9980642 -0.231129E-04  0.262E-03    1.42       2.8  T
   5   -290.9980649 -0.683597E-06  0.117E-03    1.42       6.3  T
   6   -290.9980649 -0.301614E-07  0.548E-04    1.42      13.4  T
   7   -290.9980649 -0.240721E-07  0.240E-04    1.42      30.7  T
     SCC iter.                  ...        0 min,  0.568 sec
     gradient                   ...        0 min,  0.564 sec
 * total energy  :  -287.1633707 Eh     change       -0.1645631E-02 Eh
   gradient norm :     0.0197078 Eh/α   predicted    -0.1497247E-02 (  -9.02%)
   displ. norm   :     0.6339621 α      lambda       -0.2312952E-02
   maximum displ.:     0.2440516 α      in ANC's #17, #1, #5, ...

........................................................................
.............................. CYCLE   12 ..............................
........................................................................

 iter      E             dE          RMSdq      gap      omega  full diag
   1   -291.0050502 -0.291005E+03  0.691E-02    1.43       0.0  T
   2   -291.0050709 -0.206824E-04  0.401E-02    1.42       1.0  T
   3   -291.0050320  0.389298E-04  0.169E-02    1.42       1.0  T
   4   -291.0050811 -0.490900E-04  0.290E-03    1.42       2.5  T
   5   -291.0050818 -0.750943E-06  0.136E-03    1.42       5.4  T
   6   -291.0050819 -0.559257E-07  0.677E-04    1.42      10.9  T
   7   -291.0050819 -0.430584E-07  0.262E-04    1.42      28.1  T
     SCC iter.                  ...        0 min,  0.591 sec
     gradient                   ...        0 min,  0.547 sec
 * total energy  :  -287.1649964 Eh     change       -0.1625728E-02 Eh
   gradient norm :     0.0224070 Eh/α   predicted    -0.1621309E-02 (  -0.27%)
   displ. norm   :     0.6224758 α      lambda       -0.1938490E-02
   maximum displ.:     0.2458052 α      in ANC's #17, #1, #5, ...

........................................................................
.............................. CYCLE   13 ..............................
........................................................................

 iter      E             dE          RMSdq      gap      omega  full diag
   1   -291.0016403 -0.291002E+03  0.653E-02    1.43       0.0  T
   2   -291.0016567 -0.164098E-04  0.379E-02    1.43       1.0  T
   3   -291.0016435  0.131836E-04  0.107E-02    1.42       1.0  T
   4   -291.0016605 -0.170243E-04  0.284E-03    1.42       2.6  T
   5   -291.0016615 -0.975766E-06  0.123E-03    1.42       6.0  T
   6   -291.0016615 -0.357886E-07  0.546E-04    1.42      13.5  T
   7   -291.0016616 -0.250312E-07  0.263E-04    1.42      27.9  T
     SCC iter.                  ...        0 min,  0.592 sec
     gradient                   ...        0 min,  0.537 sec
 * total energy  :  -287.1664601 Eh     change       -0.1463689E-02 Eh
   gradient norm :     0.0149587 Eh/α   predicted    -0.1344817E-02 (  -8.12%)
   displ. norm   :     0.5978238 α      lambda       -0.1495634E-02
   maximum displ.:     0.2367141 α      in ANC's #17, #1, #5, ...

........................................................................
.............................. CYCLE   14 ..............................
........................................................................

 iter      E             dE          RMSdq      gap      omega  full diag
   1   -291.0018828 -0.291002E+03  0.612E-02    1.43       0.0  T
   2   -291.0018960 -0.131607E-04  0.356E-02    1.42       1.0  T
   3   -291.0018855  0.104149E-04  0.916E-03    1.43       1.0  T
   4   -291.0018984 -0.128676E-04  0.266E-03    1.43       2.8  T
   5   -291.0018993 -0.883895E-06  0.108E-03    1.43       6.8  T
   6   -291.0018993 -0.455794E-07  0.481E-04    1.43      15.3  T
   7   -291.0018993 -0.158915E-07  0.221E-04    1.43      33.3  T
     SCC iter.                  ...        0 min,  0.578 sec
     gradient                   ...        0 min,  0.542 sec
 * total energy  :  -287.1676022 Eh     change       -0.1142119E-02 Eh
   gradient norm :     0.0130604 Eh/α   predicted    -0.1015084E-02 ( -11.12%)
   displ. norm   :     0.6167935 α      lambda       -0.1195410E-02
   maximum displ.:     0.2327867 α      in ANC's #17, #1, #5, ...

........................................................................
.............................. CYCLE   15 ..............................
........................................................................

 iter      E             dE          RMSdq      gap      omega  full diag
   1   -290.9992189 -0.290999E+03  0.618E-02    1.43       0.0  T
   2   -290.9992398 -0.209430E-04  0.360E-02    1.43       1.0  T
   3   -290.9992290  0.107955E-04  0.103E-02    1.43       1.0  T
   4   -290.9992430 -0.139224E-04  0.290E-03    1.43       2.5  T
   5   -290.9992442 -0.121677E-05  0.109E-03    1.43       6.8  T
   6   -290.9992442 -0.407020E-07  0.472E-04    1.43      15.6  T
   7   -290.9992442 -0.796626E-08  0.236E-04    1.43      31.1  T
     SCC iter.                  ...        0 min,  0.586 sec
     gradient                   ...        0 min,  0.553 sec
 * total energy  :  -287.1684762 Eh     change       -0.8740213E-03 Eh
   gradient norm :     0.0163481 Eh/α   predicted    -0.8251047E-03 (  -5.60%)
   displ. norm   :     0.5673489 α      lambda       -0.1345115E-02
   maximum displ.:     0.1982776 α      in ANC's #17, #8, #4, ...

........................................................................
.............................. CYCLE   16 ..............................
........................................................................

 iter      E             dE          RMSdq      gap      omega  full diag
   1   -291.0139287 -0.291014E+03  0.608E-02    1.43       0.0  T
   2   -291.0139715 -0.428010E-04  0.352E-02    1.43       1.0  T
   3   -291.0139639  0.753840E-05  0.133E-02    1.43       1.0  T
   4   -291.0139764 -0.124699E-04  0.357E-03    1.43       2.1  T
   5   -291.0139782 -0.184744E-05  0.124E-03    1.43       5.9  T
   6   -291.0139783 -0.504665E-07  0.576E-04    1.43      12.8  T
   7   -291.0139783 -0.109471E-07  0.213E-04    1.43      34.5  T
     SCC iter.                  ...        0 min,  0.573 sec
     gradient                   ...        0 min,  0.573 sec
 * total energy  :  -287.1690186 Eh     change       -0.5423187E-03 Eh
   gradient norm :     0.0214382 Eh/α   predicted    -0.8890515E-03 (  63.94%)
   displ. norm   :     0.4495672 α      lambda       -0.1126893E-02
   maximum displ.:     0.1445601 α      in ANC's #17, #46, #8, ...

........................................................................
.............................. CYCLE   17 ..............................
........................................................................

 iter      E             dE          RMSdq      gap      omega  full diag
   1   -291.0017011 -0.291002E+03  0.480E-02    1.43       0.0  T
   2   -291.0017226 -0.215407E-04  0.279E-02    1.44       1.0  T
   3   -291.0017185  0.416017E-05  0.885E-03    1.43       1.0  T
   4   -291.0017249 -0.640851E-05  0.234E-03    1.44       3.1  T
   5   -291.0017258 -0.906565E-06  0.917E-04    1.44       8.0  T
   6   -291.0017258 -0.286149E-07  0.451E-04    1.44      16.3  T
     SCC iter.                  ...        0 min,  0.521 sec
     gradient                   ...        0 min,  0.615 sec
 * total energy  :  -287.1697377 Eh     change       -0.7191218E-03 Eh
   gradient norm :     0.0144696 Eh/α   predicted    -0.6773258E-03 (  -5.81%)
   displ. norm   :     0.3756269 α      lambda       -0.9095775E-03
   maximum displ.:     0.1253271 α      in ANC's #19, #8, #46, ...

........................................................................
.............................. CYCLE   18 ..............................
........................................................................

 iter      E             dE          RMSdq      gap      omega  full diag
   1   -291.0083335 -0.291008E+03  0.408E-02    1.44       0.0  T
   2   -291.0083669 -0.334156E-04  0.237E-02    1.44       1.0  T
   3   -291.0083670 -0.128180E-06  0.969E-03    1.44       1.0  T
   4   -291.0083696 -0.255323E-05  0.218E-03    1.44       3.4  T
   5   -291.0083703 -0.661981E-06  0.917E-04    1.44       8.0  T
   6   -291.0083703 -0.570178E-07  0.453E-04    1.44      16.2  T
     SCC iter.                  ...        0 min,  0.506 sec
     gradient                   ...        0 min,  0.535 sec
 * total energy  :  -287.1701428 Eh     change       -0.4050733E-03 Eh
   gradient norm :     0.0225484 Eh/α   predicted    -0.5189595E-03 (  28.11%)
   displ. norm   :     0.3857511 α      lambda       -0.9136827E-03
   maximum displ.:     0.1339495 α      in ANC's #8, #7, #19, ...

........................................................................
.............................. CYCLE   19 ..............................
........................................................................

 iter      E             dE          RMSdq      gap      omega  full diag
   1   -291.0037195 -0.291004E+03  0.383E-02    1.44       0.0  T
   2   -291.0037309 -0.113890E-04  0.223E-02    1.44       1.0  T
   3   -291.0037288  0.206175E-05  0.655E-03    1.44       1.1  T
   4   -291.0037323 -0.341426E-05  0.156E-03    1.44       4.7  T
   5   -291.0037326 -0.295674E-06  0.683E-04    1.44      10.8  T
   6   -291.0037326 -0.202416E-07  0.344E-04    1.44      21.4  T
     SCC iter.                  ...        0 min,  0.545 sec
     gradient                   ...        0 min,  0.604 sec
 * total energy  :  -287.1708082 Eh     change       -0.6654871E-03 Eh
   gradient norm :     0.0157535 Eh/α   predicted    -0.5248249E-03 ( -21.14%)
   displ. norm   :     0.4807798 α      lambda       -0.1085872E-02
   maximum displ.:     0.1692275 α      in ANC's #8, #19, #7, ...

........................................................................
.............................. CYCLE   20 ..............................
........................................................................

 iter      E             dE          RMSdq      gap      omega  full diag
   1   -291.0063053 -0.291006E+03  0.501E-02    1.44       0.0  T
   2   -291.0063435 -0.381974E-04  0.294E-02    1.44       1.0  T
   3   -291.0063422  0.123665E-05  0.107E-02    1.44       1.0  T
   4   -291.0063468 -0.460455E-05  0.245E-03    1.44       3.0  T
   5   -291.0063476 -0.762265E-06  0.105E-03    1.44       7.0  T
   6   -291.0063477 -0.688657E-07  0.478E-04    1.44      15.4  T
   7   -291.0063477 -0.100698E-07  0.198E-04    1.44      37.1  T
     SCC iter.                  ...        0 min,  0.611 sec
     gradient                   ...        0 min,  0.620 sec
 * total energy  :  -287.1713302 Eh     change       -0.5219654E-03 Eh
   gradient norm :     0.0174693 Eh/α   predicted    -0.6684361E-03 (  28.06%)
   displ. norm   :     0.5057387 α      lambda       -0.8722824E-03
   maximum displ.:     0.1780373 α      in ANC's #19, #8, #7, ...
 * RMSD in coord.:     0.5868871 α      energy gain  -0.3967261E+00 Eh

generating ANC from model Hessian ...
Using Lindh-Hessian (1995)
 Shifting diagonal of input Hessian by   9.746130761074112E-003
 Lowest  eigenvalues of input Hessian
   -0.000000   -0.000000   -0.000000   -0.000000   -0.000000   -0.000000
   -0.000000   -0.000000   -0.000000   -0.000000   -0.000000   -0.000000
   -0.000000   -0.000000   -0.000000   -0.000000   -0.000000   -0.000000
 Highest eigenvalues
    2.216397    2.233034    2.243052    2.276215    2.361730    2.370167
 

........................................................................
.............................. CYCLE   21 ..............................
........................................................................

 iter      E             dE          RMSdq      gap      omega  full diag
   1   -291.0057100 -0.291006E+03  0.491E-02    1.44       0.0  T
   2   -291.0057319 -0.218669E-04  0.286E-02    1.43       1.0  T
   3   -291.0057303  0.158945E-05  0.854E-03    1.43       1.0  T
   4   -291.0057345 -0.416215E-05  0.149E-03    1.43       4.9  T
   5   -291.0057346 -0.147893E-06  0.810E-04    1.43       9.1  T
   6   -291.0057346 -0.299656E-07  0.359E-04    1.43      20.5  T
     SCC iter.                  ...        0 min,  0.505 sec
     gradient                   ...        0 min,  0.547 sec
 * total energy  :  -287.1718784 Eh     change       -0.5481665E-03 Eh
   gradient norm :     0.0146181 Eh/α   predicted     0.0000000E+00 (-100.00%)
   displ. norm   :     0.1320961 α      lambda       -0.5121180E-03
   maximum displ.:     0.0681590 α      in ANC's #45, #19, #20, ...

........................................................................
.............................. CYCLE   22 ..............................
........................................................................

 iter      E             dE          RMSdq      gap      omega  full diag
   1   -291.0090685 -0.291009E+03  0.190E-02    1.43       0.0  T
   2   -291.0090737 -0.525082E-05  0.112E-02    1.43       1.0  T
   3   -291.0090733  0.385922E-06  0.417E-03    1.43       1.8  T
   4   -291.0090743 -0.928303E-06  0.101E-03    1.43       7.3  T
   5   -291.0090744 -0.150056E-06  0.423E-04    1.43      17.4  T
   6   -291.0090744 -0.122679E-07  0.183E-04    1.43      40.1  T
     SCC iter.                  ...        0 min,  0.497 sec
     gradient                   ...        0 min,  0.597 sec
 * total energy  :  -287.1722693 Eh     change       -0.3909596E-03 Eh
   gradient norm :     0.0048481 Eh/α   predicted    -0.2605320E-03 ( -33.36%)
   displ. norm   :     0.3232127 α      lambda       -0.6562414E-03
   maximum displ.:     0.1726495 α      in ANC's #45, #19, #20, ...

........................................................................
.............................. CYCLE   23 ..............................
........................................................................

 iter      E             dE          RMSdq      gap      omega  full diag
   1   -291.0109257 -0.291011E+03  0.379E-02    1.44       0.0  T
   2   -291.0109363 -0.106385E-04  0.222E-02    1.44       1.0  T
   3   -291.0109350  0.132890E-05  0.587E-03    1.44       1.3  T
   4   -291.0109375 -0.252984E-05  0.159E-03    1.44       4.6  T
   5   -291.0109378 -0.285018E-06  0.728E-04    1.44      10.1  T
   6   -291.0109378 -0.252796E-07  0.300E-04    1.44      24.5  T
     SCC iter.                  ...        0 min,  0.534 sec
     gradient                   ...        0 min,  0.656 sec
 * total energy  :  -287.1727413 Eh     change       -0.4719224E-03 Eh
   gradient norm :     0.0108907 Eh/α   predicted    -0.3624463E-03 ( -23.20%)
   displ. norm   :     0.3950366 α      lambda       -0.5550510E-03
   maximum displ.:     0.1997538 α      in ANC's #45, #19, #20, ...

........................................................................
.............................. CYCLE   24 ..............................
........................................................................

 iter      E             dE          RMSdq      gap      omega  full diag
   1   -291.0089432 -0.291009E+03  0.416E-02    1.45       0.0  T
   2   -291.0089488 -0.566386E-05  0.244E-02    1.45       1.0  T
   3   -291.0089471  0.176377E-05  0.454E-03    1.45       1.6  T
   4   -291.0089498 -0.275257E-05  0.153E-03    1.45       4.8  T
   5   -291.0089501 -0.265097E-06  0.737E-04    1.45      10.0  T
   6   -291.0089501 -0.193545E-07  0.283E-04    1.45      26.0  T
     SCC iter.                  ...        0 min,  0.496 sec
     gradient                   ...        0 min,  0.604 sec
 * total energy  :  -287.1731370 Eh     change       -0.3957823E-03 Eh
   gradient norm :     0.0178355 Eh/α   predicted    -0.3208385E-03 ( -18.94%)
   displ. norm   :     0.3771791 α      lambda       -0.6218635E-03
   maximum displ.:     0.1494531 α      in ANC's #45, #19, #20, ...

........................................................................
.............................. CYCLE   25 ..............................
........................................................................

 iter      E             dE          RMSdq      gap      omega  full diag
   1   -291.0072694 -0.291007E+03  0.371E-02    1.46       0.0  T
   2   -291.0072740 -0.466491E-05  0.217E-02    1.46       1.0  T
   3   -291.0072730  0.105820E-05  0.390E-03    1.46       1.9  T
   4   -291.0072748 -0.183353E-05  0.118E-03    1.46       6.2  T
   5   -291.0072749 -0.135713E-06  0.609E-04    1.46      12.1  T
   6   -291.0072749 -0.166774E-07  0.255E-04    1.46      28.9  T
     SCC iter.                  ...        0 min,  0.510 sec
     gradient                   ...        0 min,  0.581 sec
 * total energy  :  -287.1736361 Eh     change       -0.4990469E-03 Eh
   gradient norm :     0.0152417 Eh/α   predicted    -0.3552308E-03 ( -28.82%)
   displ. norm   :     0.4247054 α      lambda       -0.8859372E-03
   maximum displ.:     0.1697025 α      in ANC's #19, #20, #45, ...

........................................................................
.............................. CYCLE   26 ..............................
........................................................................

 iter      E             dE          RMSdq      gap      omega  full diag
   1   -291.0082257 -0.291008E+03  0.432E-02    1.48       0.0  T
   2   -291.0082422 -0.165415E-04  0.250E-02    1.47       1.0  T
   3   -291.0082404  0.182753E-05  0.739E-03    1.48       1.0  T
   4   -291.0082439 -0.351910E-05  0.170E-03    1.48       4.3  T
   5   -291.0082443 -0.354971E-06  0.787E-04    1.48       9.3  T
   6   -291.0082443 -0.225609E-07  0.395E-04    1.48      18.6  T
     SCC iter.                  ...        0 min,  0.543 sec
     gradient                   ...        0 min,  0.626 sec
 * total energy  :  -287.1741991 Eh     change       -0.5629710E-03 Eh
   gradient norm :     0.0078595 Eh/α   predicted    -0.5228704E-03 (  -7.12%)
   displ. norm   :     0.6089575 α      lambda       -0.6681336E-03
   maximum displ.:     0.2417586 α      in ANC's #20, #45, #19, ...

........................................................................
.............................. CYCLE   27 ..............................
........................................................................

 iter      E             dE          RMSdq      gap      omega  full diag
   1   -291.0003674 -0.291000E+03  0.610E-02    1.49       0.0  T
   2   -291.0003818 -0.143732E-04  0.355E-02    1.49       1.0  T
   3   -291.0003777  0.408906E-05  0.729E-03    1.49       1.0  T
   4   -291.0003838 -0.607840E-05  0.221E-03    1.49       3.3  T
   5   -291.0003844 -0.594877E-06  0.104E-03    1.49       7.1  T
   6   -291.0003844 -0.206326E-07  0.477E-04    1.49      15.4  T
   7   -291.0003844 -0.171092E-07  0.181E-04    1.49      40.6  T
     SCC iter.                  ...        0 min,  0.622 sec
     gradient                   ...        0 min,  0.574 sec
 * total energy  :  -287.1745273 Eh     change       -0.3282359E-03 Eh
   gradient norm :     0.0171714 Eh/α   predicted    -0.4579486E-03 (  39.52%)
   displ. norm   :     0.1909867 α      lambda       -0.5357799E-03
   maximum displ.:     0.0759800 α      in ANC's #20, #19, #1, ...

........................................................................
.............................. CYCLE   28 ..............................
........................................................................

 iter      E             dE          RMSdq      gap      omega  full diag
   1   -291.0065610 -0.291007E+03  0.202E-02    1.50       0.0  T
   2   -291.0065645 -0.352302E-05  0.116E-02    1.49       1.0  T
   3   -291.0065641  0.467283E-06  0.340E-03    1.49       2.2  T
   4   -291.0065649 -0.828700E-06  0.100E-03    1.49       7.3  T
   5   -291.0065650 -0.116864E-06  0.431E-04    1.49      17.1  T
   6   -291.0065650 -0.387286E-08  0.201E-04    1.49      36.5  T
     SCC iter.                  ...        0 min,  0.517 sec
     gradient                   ...        0 min,  0.632 sec
 * total energy  :  -287.1749384 Eh     change       -0.4111062E-03 Eh
   gradient norm :     0.0091386 Eh/α   predicted    -0.2776623E-03 ( -32.46%)
   displ. norm   :     0.5351275 α      lambda       -0.6551853E-03
   maximum displ.:     0.2227566 α      in ANC's #20, #19, #1, ...

........................................................................
.............................. CYCLE   29 ..............................
........................................................................

 iter      E             dE          RMSdq      gap      omega  full diag
   1   -291.0103859 -0.291010E+03  0.493E-02    1.50       0.0  T
   2   -291.0103920 -0.614389E-05  0.289E-02    1.50       1.0  T
   3   -291.0103890  0.304663E-05  0.544E-03    1.50       1.4  T
   4   -291.0103934 -0.441029E-05  0.161E-03    1.50       4.6  T
   5   -291.0103936 -0.226871E-06  0.822E-04    1.50       8.9  T
   6   -291.0103936 -0.271020E-07  0.355E-04    1.50      20.7  T
     SCC iter.                  ...        0 min,  0.539 sec
     gradient                   ...        0 min,  0.626 sec
 * total energy  :  -287.1754344 Eh     change       -0.4960071E-03 Eh
   gradient norm :     0.0073395 Eh/α   predicted    -0.4214746E-03 ( -15.03%)
   displ. norm   :     0.5713460 α      lambda       -0.4738267E-03
   maximum displ.:     0.2351149 α      in ANC's #20, #19, #1, ...

........................................................................
.............................. CYCLE   30 ..............................
........................................................................

 iter      E             dE          RMSdq      gap      omega  full diag
   1   -291.0090473 -0.291009E+03  0.535E-02    1.51       0.0  T
   2   -291.0090548 -0.753075E-05  0.314E-02    1.50       1.0  T
   3   -291.0090520  0.283877E-05  0.533E-03    1.50       1.4  T
   4   -291.0090561 -0.418957E-05  0.171E-03    1.50       4.3  T
   5   -291.0090565 -0.327097E-06  0.837E-04    1.50       8.8  T
   6   -291.0090565 -0.227939E-07  0.352E-04    1.50      20.9  T
     SCC iter.                  ...        0 min,  0.534 sec
     gradient                   ...        0 min,  0.603 sec
 * total energy  :  -287.1757904 Eh     change       -0.3559935E-03 Eh
   gradient norm :     0.0081610 Eh/α   predicted    -0.3142558E-03 ( -11.72%)
   displ. norm   :     0.4514444 α      lambda       -0.4478868E-03
   maximum displ.:     0.1703688 α      in ANC's #20, #19, #10, ...

........................................................................
.............................. CYCLE   31 ..............................
........................................................................

 iter      E             dE          RMSdq      gap      omega  full diag
   1   -291.0146345 -0.291015E+03  0.449E-02    1.50       0.0  T
   2   -291.0146461 -0.116503E-04  0.262E-02    1.50       1.0  T
   3   -291.0146443  0.178352E-05  0.598E-03    1.50       1.2  T
   4   -291.0146474 -0.311501E-05  0.157E-03    1.50       4.7  T
   5   -291.0146477 -0.249800E-06  0.783E-04    1.50       9.4  T
   6   -291.0146477 -0.285124E-07  0.386E-04    1.50      19.0  T
     SCC iter.                  ...        0 min,  0.519 sec
     gradient                   ...        0 min,  0.581 sec
 * total energy  :  -287.1760331 Eh     change       -0.2426770E-03 Eh
   gradient norm :     0.0066604 Eh/α   predicted    -0.2695858E-03 (  11.09%)
   displ. norm   :     0.5494691 α      lambda       -0.3302706E-03
   maximum displ.:     0.2091002 α      in ANC's #20, #19, #10, ...

........................................................................
.............................. CYCLE   32 ..............................
........................................................................

 iter      E             dE          RMSdq      gap      omega  full diag
   1   -291.0054592 -0.291005E+03  0.545E-02    1.51       0.0  T
   2   -291.0054671 -0.788660E-05  0.318E-02    1.50       1.0  T
   3   -291.0054641  0.302910E-05  0.576E-03    1.50       1.3  T
   4   -291.0054688 -0.476675E-05  0.158E-03    1.50       4.6  T
   5   -291.0054690 -0.186378E-06  0.863E-04    1.50       8.5  T
   6   -291.0054690 -0.255589E-07  0.374E-04    1.50      19.7  T
     SCC iter.                  ...        0 min,  0.526 sec
     gradient                   ...        0 min,  0.619 sec
 * total energy  :  -287.1761455 Eh     change       -0.1123733E-03 Eh
   gradient norm :     0.0098305 Eh/α   predicted    -0.2149994E-03 (  91.33%)
   displ. norm   :     0.0841262 α      lambda       -0.2052387E-03
   maximum displ.:     0.0318660 α      in ANC's #19, #20, #45, ...

........................................................................
.............................. CYCLE   33 ..............................
........................................................................

 iter      E             dE          RMSdq      gap      omega  full diag
   1   -291.0108743 -0.291011E+03  0.127E-02    1.50       0.0  T
   2   -291.0108766 -0.228651E-05  0.722E-03    1.50       1.0  T
   3   -291.0108765  0.651165E-07  0.267E-03    1.50       2.8  T
   4   -291.0108768 -0.315897E-06  0.570E-04    1.50      12.9  T
   5   -291.0108769 -0.369512E-07  0.282E-04    1.50      26.1  T
     SCC iter.                  ...        0 min,  0.450 sec
     gradient                   ...        0 min,  0.594 sec
 * total energy  :  -287.1762805 Eh     change       -0.1350686E-03 Eh
   gradient norm :     0.0041609 Eh/α   predicted    -0.1033479E-03 ( -23.48%)
   displ. norm   :     0.2294720 α      lambda       -0.1649945E-03
   maximum displ.:     0.0968426 α      in ANC's #10, #1, #7, ...

........................................................................
.............................. CYCLE   34 ..............................
........................................................................

 iter      E             dE          RMSdq      gap      omega  full diag
   1   -291.0125356 -0.291013E+03  0.249E-02    1.50       0.0  T
   2   -291.0125380 -0.239434E-05  0.146E-02    1.50       1.0  T
   3   -291.0125371  0.828879E-06  0.334E-03    1.50       2.2  T
   4   -291.0125385 -0.133776E-05  0.668E-04    1.50      11.0  T
   5   -291.0125385 -0.140158E-07  0.421E-04    1.50      17.5  T
   6   -291.0125385 -0.110552E-07  0.183E-04    1.50      40.1  T
     SCC iter.                  ...        0 min,  0.494 sec
     gradient                   ...        0 min,  0.533 sec
 * total energy  :  -287.1763915 Eh     change       -0.1109913E-03 Eh
   gradient norm :     0.0047387 Eh/α   predicted    -0.8684230E-04 ( -21.76%)
   displ. norm   :     0.3421294 α      lambda       -0.1733626E-03
   maximum displ.:     0.1431880 α      in ANC's #10, #1, #7, ...

........................................................................
.............................. CYCLE   35 ..............................
........................................................................

 iter      E             dE          RMSdq      gap      omega  full diag
   1   -291.0128618 -0.291013E+03  0.375E-02    1.50       0.0  T
   2   -291.0128662 -0.435527E-05  0.219E-02    1.50       1.0  T
   3   -291.0128655  0.643725E-06  0.364E-03    1.50       2.0  T
   4   -291.0128669 -0.133267E-05  0.992E-04    1.50       7.4  T
   5   -291.0128669 -0.541640E-07  0.562E-04    1.50      13.1  T
   6   -291.0128669 -0.154799E-07  0.238E-04    1.50      30.9  T
     SCC iter.                  ...        0 min,  0.511 sec
     gradient                   ...        0 min,  0.610 sec
 * total energy  :  -287.1765008 Eh     change       -0.1093097E-03 Eh
   gradient norm :     0.0058951 Eh/α   predicted    -0.9682801E-04 ( -11.42%)
   displ. norm   :     0.3495784 α      lambda       -0.1488842E-03
   maximum displ.:     0.1471832 α      in ANC's #10, #7, #6, ...

........................................................................
.............................. CYCLE   36 ..............................
........................................................................

 iter      E             dE          RMSdq      gap      omega  full diag
   1   -291.0112005 -0.291011E+03  0.358E-02    1.50       0.0  T
   2   -291.0112037 -0.318248E-05  0.209E-02    1.50       1.0  T
   3   -291.0112027  0.966767E-06  0.352E-03    1.50       2.1  T
   4   -291.0112043 -0.154183E-05  0.109E-03    1.50       6.7  T
   5   -291.0112044 -0.900797E-07  0.587E-04    1.50      12.5  T
   6   -291.0112044 -0.201944E-07  0.242E-04    1.50      30.4  T
     SCC iter.                  ...        0 min,  0.540 sec
     gradient                   ...        0 min,  0.619 sec
 * total energy  :  -287.1765998 Eh     change       -0.9897060E-04 Eh
   gradient norm :     0.0049738 Eh/α   predicted    -0.8354111E-04 ( -15.59%)
   displ. norm   :     0.2718234 α      lambda       -0.1455071E-03
   maximum displ.:     0.1216260 α      in ANC's #10, #7, #6, ...

........................................................................
.............................. CYCLE   37 ..............................
........................................................................

 iter      E             dE          RMSdq      gap      omega  full diag
   1   -291.0107362 -0.291011E+03  0.300E-02    1.50       0.0  T
   2   -291.0107391 -0.293506E-05  0.173E-02    1.50       1.0  T
   3   -291.0107381  0.963576E-06  0.347E-03    1.50       2.1  T
   4   -291.0107395 -0.139233E-05  0.112E-03    1.50       6.5  T
   5   -291.0107397 -0.125980E-06  0.555E-04    1.50      13.2  T
   6   -291.0107397 -0.196017E-07  0.211E-04    1.50      34.8  T
     SCC iter.                  ...        0 min,  0.545 sec
     gradient                   ...        0 min,  0.627 sec
 * total energy  :  -287.1767012 Eh     change       -0.1014035E-03 Eh
   gradient norm :     0.0059932 Eh/α   predicted    -0.7813132E-04 ( -22.95%)
   displ. norm   :     0.2880457 α      lambda       -0.1901621E-03
   maximum displ.:     0.1285374 α      in ANC's #10, #7, #6, ...

........................................................................
.............................. CYCLE   38 ..............................
........................................................................

 iter      E             dE          RMSdq      gap      omega  full diag
   1   -291.0131947 -0.291013E+03  0.327E-02    1.50       0.0  T
   2   -291.0131983 -0.358430E-05  0.186E-02    1.50       1.0  T
   3   -291.0131975  0.863248E-06  0.362E-03    1.50       2.0  T
   4   -291.0131988 -0.130079E-05  0.139E-03    1.50       5.3  T
   5   -291.0131990 -0.196357E-06  0.621E-04    1.50      11.8  T
   6   -291.0131990 -0.249565E-07  0.196E-04    1.50      37.4  T
     SCC iter.                  ...        0 min,  0.522 sec
     gradient                   ...        0 min,  0.590 sec
 * total energy  :  -287.1768057 Eh     change       -0.1045382E-03 Eh
   gradient norm :     0.0052522 Eh/α   predicted    -0.1029707E-03 (  -1.50%)
   displ. norm   :     0.3359398 α      lambda       -0.1434174E-03
   maximum displ.:     0.1587842 α      in ANC's #10, #6, #7, ...

........................................................................
.............................. CYCLE   39 ..............................
........................................................................

 iter      E             dE          RMSdq      gap      omega  full diag
   1   -291.0092917 -0.291009E+03  0.358E-02    1.50       0.0  T
   2   -291.0092962 -0.450999E-05  0.208E-02    1.50       1.0  T
   3   -291.0092950  0.122279E-05  0.427E-03    1.50       1.7  T
   4   -291.0092969 -0.198680E-05  0.128E-03    1.50       5.7  T
   5   -291.0092970 -0.969042E-07  0.661E-04    1.50      11.1  T
   6   -291.0092971 -0.313211E-07  0.240E-04    1.50      30.6  T
     SCC iter.                  ...        0 min,  0.538 sec
     gradient                   ...        0 min,  0.596 sec
 * total energy  :  -287.1768756 Eh     change       -0.6984210E-04 Eh
   gradient norm :     0.0068826 Eh/α   predicted    -0.7980338E-04 (  14.26%)
   displ. norm   :     0.1632320 α      lambda       -0.1474543E-03
   maximum displ.:     0.0608726 α      in ANC's #19, #10, #20, ...

........................................................................
.............................. CYCLE   40 ..............................
........................................................................

 iter      E             dE          RMSdq      gap      omega  full diag
   1   -291.0120856 -0.291012E+03  0.187E-02    1.50       0.0  T
   2   -291.0120920 -0.636882E-05  0.107E-02    1.50       1.0  T
   3   -291.0120921 -0.978559E-07  0.394E-03    1.50       1.9  T
   4   -291.0120925 -0.358201E-06  0.850E-04    1.50       8.6  T
   5   -291.0120925 -0.523726E-07  0.427E-04    1.50      17.2  T
     SCC iter.                  ...        0 min,  0.439 sec
     gradient                   ...        0 min,  0.558 sec
 * total energy  :  -287.1769539 Eh     change       -0.7828544E-04 Eh
   gradient norm :     0.0062589 Eh/α   predicted    -0.7569266E-04 (  -3.31%)
   displ. norm   :     0.1996262 α      lambda       -0.1211789E-03
   maximum displ.:     0.0945811 α      in ANC's #10, #6, #7, ...

........................................................................
.............................. CYCLE   41 ..............................
........................................................................

 iter      E             dE          RMSdq      gap      omega  full diag
   1   -291.0118127 -0.291012E+03  0.228E-02    1.50       0.0  T
   2   -291.0118153 -0.260625E-05  0.132E-02    1.50       1.0  T
   3   -291.0118148  0.465983E-06  0.316E-03    1.50       2.3  T
   4   -291.0118157 -0.846430E-06  0.803E-04    1.50       9.2  T
   5   -291.0118157 -0.320496E-07  0.434E-04    1.50      16.9  T
     SCC iter.                  ...        0 min,  0.431 sec
     gradient                   ...        0 min,  0.544 sec
 * total energy  :  -287.1770313 Eh     change       -0.7746377E-04 Eh
   gradient norm :     0.0057155 Eh/α   predicted    -0.6300529E-04 ( -18.66%)
   displ. norm   :     0.2571967 α      lambda       -0.1346408E-03
   maximum displ.:     0.1224356 α      in ANC's #10, #6, #7, ...

........................................................................
.............................. CYCLE   42 ..............................
........................................................................

 iter      E             dE          RMSdq      gap      omega  full diag
   1   -291.0127040 -0.291013E+03  0.270E-02    1.49       0.0  T
   2   -291.0127087 -0.473060E-05  0.156E-02    1.49       1.0  T
   3   -291.0127084  0.338035E-06  0.367E-03    1.49       2.0  T
   4   -291.0127092 -0.796363E-06  0.978E-04    1.49       7.5  T
   5   -291.0127092 -0.735740E-07  0.515E-04    1.49      14.3  T
     SCC iter.                  ...        0 min,  0.420 sec
     gradient                   ...        0 min,  0.541 sec
 * total energy  :  -287.1771071 Eh     change       -0.7577834E-04 Eh
   gradient norm :     0.0053709 Eh/α   predicted    -0.7177443E-04 (  -5.28%)
   displ. norm   :     0.3826421 α      lambda       -0.1300054E-03
   maximum displ.:     0.1823233 α      in ANC's #10, #6, #7, ...
 * RMSD in coord.:     0.4399253 α      energy gain  -0.5776893E-02 Eh

generating ANC from model Hessian ...
Using Lindh-Hessian (1995)
 Shifting diagonal of input Hessian by   9.748808813827729E-003
 Lowest  eigenvalues of input Hessian
   -0.000000   -0.000000   -0.000000   -0.000000   -0.000000   -0.000000
   -0.000000   -0.000000   -0.000000   -0.000000   -0.000000   -0.000000
   -0.000000   -0.000000   -0.000000   -0.000000   -0.000000   -0.000000
 Highest eigenvalues
    2.217767    2.231749    2.244859    2.272670    2.344171    2.371950
 

........................................................................
.............................. CYCLE   43 ..............................
........................................................................

 iter      E             dE          RMSdq      gap      omega  full diag
   1   -291.0087488 -0.291009E+03  0.397E-02    1.49       0.0  T
   2   -291.0087530 -0.421662E-05  0.231E-02    1.49       1.0  T
   3   -291.0087519  0.110032E-05  0.393E-03    1.49       1.9  T
   4   -291.0087537 -0.182946E-05  0.118E-03    1.49       6.3  T
   5   -291.0087538 -0.835159E-07  0.623E-04    1.49      11.8  T
   6   -291.0087539 -0.240712E-07  0.240E-04    1.49      30.6  T
     SCC iter.                  ...        0 min,  0.512 sec
     gradient                   ...        0 min,  0.536 sec
 * total energy  :  -287.1771753 Eh     change       -0.6818801E-04 Eh
   gradient norm :     0.0069043 Eh/α   predicted     0.0000000E+00 (-100.00%)
   displ. norm   :     0.0613210 α      lambda       -0.1285996E-03
   maximum displ.:     0.0342692 α      in ANC's #47, #41, #44, ...

........................................................................
.............................. CYCLE   44 ..............................
........................................................................

 iter      E             dE          RMSdq      gap      omega  full diag
   1   -291.0119543 -0.291012E+03  0.994E-03    1.49       0.0  T
   2   -291.0119553 -0.105955E-05  0.575E-03    1.49       1.3  T
   3   -291.0119552  0.130782E-06  0.194E-03    1.49       3.8  T
   4   -291.0119554 -0.225622E-06  0.566E-04    1.49      13.0  T
   5   -291.0119555 -0.439898E-07  0.225E-04    1.49      32.7  T
     SCC iter.                  ...        0 min,  0.417 sec
     gradient                   ...        0 min,  0.545 sec
 * total energy  :  -287.1772715 Eh     change       -0.9617395E-04 Eh
   gradient norm :     0.0023957 Eh/α   predicted    -0.6473577E-04 ( -32.69%)
   displ. norm   :     0.1304580 α      lambda       -0.1248665E-03
   maximum displ.:     0.0734507 α      in ANC's #47, #41, #44, ...

........................................................................
.............................. CYCLE   45 ..............................
........................................................................

 iter      E             dE          RMSdq      gap      omega  full diag
   1   -291.0142742 -0.291014E+03  0.169E-02    1.50       0.0  T
   2   -291.0142761 -0.183046E-05  0.985E-03    1.50       1.0  T
   3   -291.0142756  0.419772E-06  0.267E-03    1.50       2.8  T
   4   -291.0142762 -0.599862E-06  0.830E-04    1.50       8.9  T
   5   -291.0142763 -0.912401E-07  0.334E-04    1.50      22.0  T
     SCC iter.                  ...        0 min,  0.409 sec
     gradient                   ...        0 min,  0.539 sec
 * total energy  :  -287.1773601 Eh     change       -0.8866632E-04 Eh
   gradient norm :     0.0030538 Eh/α   predicted    -0.6350123E-04 ( -28.38%)
   displ. norm   :     0.1727104 α      lambda       -0.9989856E-04
   maximum displ.:     0.0927223 α      in ANC's #47, #41, #44, ...

........................................................................
.............................. CYCLE   46 ..............................
........................................................................

 iter      E             dE          RMSdq      gap      omega  full diag
   1   -291.0144808 -0.291014E+03  0.206E-02    1.50       0.0  T
   2   -291.0144822 -0.142380E-05  0.121E-02    1.50       1.0  T
   3   -291.0144815  0.658722E-06  0.265E-03    1.50       2.8  T
   4   -291.0144824 -0.866667E-06  0.852E-04    1.50       8.6  T
   5   -291.0144825 -0.861469E-07  0.370E-04    1.50      19.8  T
     SCC iter.                  ...        0 min,  0.410 sec
     gradient                   ...        0 min,  0.573 sec
 * total energy  :  -287.1774358 Eh     change       -0.7564737E-04 Eh
   gradient norm :     0.0042303 Eh/α   predicted    -0.5147202E-04 ( -31.96%)
   displ. norm   :     0.2442078 α      lambda       -0.1149575E-03
   maximum displ.:     0.1163950 α      in ANC's #47, #44, #41, ...

........................................................................
.............................. CYCLE   47 ..............................
........................................................................

 iter      E             dE          RMSdq      gap      omega  full diag
   1   -291.0130169 -0.291013E+03  0.277E-02    1.51       0.0  T
   2   -291.0130186 -0.169286E-05  0.162E-02    1.51       1.0  T
   3   -291.0130176  0.946085E-06  0.306E-03    1.51       2.4  T
   4   -291.0130189 -0.129949E-05  0.970E-04    1.51       7.6  T
   5   -291.0130190 -0.865182E-07  0.476E-04    1.51      15.4  T
   6   -291.0130190 -0.831295E-08  0.191E-04    1.51      38.5  T
     SCC iter.                  ...        0 min,  0.484 sec
     gradient                   ...        0 min,  0.535 sec
 * total energy  :  -287.1775164 Eh     change       -0.8066673E-04 Eh
   gradient norm :     0.0040061 Eh/α   predicted    -0.6090694E-04 ( -24.50%)
   displ. norm   :     0.2063797 α      lambda       -0.8982106E-04
   maximum displ.:     0.0751446 α      in ANC's #44, #47, #6, ...

........................................................................
.............................. CYCLE   48 ..............................
........................................................................

 iter      E             dE          RMSdq      gap      omega  full diag
   1   -291.0116636 -0.291012E+03  0.229E-02    1.51       0.0  T
   2   -291.0116646 -0.102854E-05  0.134E-02    1.51       1.0  T
   3   -291.0116641  0.544495E-06  0.235E-03    1.51       3.1  T
   4   -291.0116648 -0.767216E-06  0.742E-04    1.51       9.9  T
   5   -291.0116649 -0.493440E-07  0.375E-04    1.51      19.6  T
     SCC iter.                  ...        0 min,  0.409 sec
     gradient                   ...        0 min,  0.528 sec
 * total energy  :  -287.1775813 Eh     change       -0.6488492E-04 Eh
   gradient norm :     0.0035446 Eh/α   predicted    -0.4682426E-04 ( -27.83%)
   displ. norm   :     0.1936186 α      lambda       -0.8727582E-04
   maximum displ.:     0.0740297 α      in ANC's #44, #6, #55, ...

........................................................................
.............................. CYCLE   49 ..............................
........................................................................

 iter      E             dE          RMSdq      gap      omega  full diag
   1   -291.0113712 -0.291011E+03  0.211E-02    1.51       0.0  T
   2   -291.0113722 -0.105764E-05  0.124E-02    1.51       1.0  T
   3   -291.0113719  0.380790E-06  0.219E-03    1.51       3.4  T
   4   -291.0113724 -0.586057E-06  0.664E-04    1.51      11.1  T
   5   -291.0113725 -0.369766E-07  0.341E-04    1.51      21.5  T
     SCC iter.                  ...        0 min,  3.026 sec
     gradient                   ...        0 min,  0.550 sec
 * total energy  :  -287.1776431 Eh     change       -0.6176642E-04 Eh
   gradient norm :     0.0041268 Eh/α   predicted    -0.4527508E-04 ( -26.70%)
   displ. norm   :     0.2077755 α      lambda       -0.7846188E-04
   maximum displ.:     0.0759585 α      in ANC's #44, #6, #55, ...

........................................................................
.............................. CYCLE   50 ..............................
........................................................................

 iter      E             dE          RMSdq      gap      omega  full diag
   1   -291.0113700 -0.291011E+03  0.224E-02    1.51       0.0  T
   2   -291.0113710 -0.949785E-06  0.131E-02    1.51       1.0  T
   3   -291.0113705  0.427989E-06  0.217E-03    1.51       3.4  T
   4   -291.0113712 -0.640588E-06  0.637E-04    1.51      11.5  T
   5   -291.0113712 -0.324796E-07  0.338E-04    1.51      21.8  T
     SCC iter.                  ...        0 min,  0.451 sec
     gradient                   ...        0 min,  0.628 sec
 * total energy  :  -287.1777028 Eh     change       -0.5971394E-04 Eh
   gradient norm :     0.0045377 Eh/α   predicted    -0.4092611E-04 ( -31.46%)
   displ. norm   :     0.2752410 α      lambda       -0.1044221E-03
   maximum displ.:     0.0993147 α      in ANC's #44, #6, #20, ...

........................................................................
.............................. CYCLE   51 ..............................
........................................................................

 iter      E             dE          RMSdq      gap      omega  full diag
   1   -291.0119592 -0.291012E+03  0.290E-02    1.50       0.0  T
   2   -291.0119606 -0.135024E-05  0.170E-02    1.51       1.0  T
   3   -291.0119600  0.612579E-06  0.258E-03    1.51       2.8  T
   4   -291.0119609 -0.953165E-06  0.794E-04    1.51       9.3  T
   5   -291.0119609 -0.415273E-07  0.437E-04    1.51      16.8  T
     SCC iter.                  ...        0 min,  0.441 sec
     gradient                   ...        0 min,  0.606 sec
 * total energy  :  -287.1777825 Eh     change       -0.7966093E-04 Eh
   gradient norm :     0.0045329 Eh/α   predicted    -0.5617260E-04 ( -29.49%)
   displ. norm   :     0.3487757 α      lambda       -0.1216556E-03
   maximum displ.:     0.1313262 α      in ANC's #44, #6, #20, ...

........................................................................
.............................. CYCLE   52 ..............................
........................................................................

 iter      E             dE          RMSdq      gap      omega  full diag
   1   -291.0118394 -0.291012E+03  0.369E-02    1.51       0.0  T
   2   -291.0118413 -0.190995E-05  0.217E-02    1.51       1.0  T
   3   -291.0118405  0.826313E-06  0.301E-03    1.51       2.4  T
   4   -291.0118418 -0.135506E-05  0.912E-04    1.51       8.1  T
   5   -291.0118419 -0.395847E-07  0.510E-04    1.51      14.4  T
   6   -291.0118419 -0.121559E-07  0.191E-04    1.51      38.4  T
     SCC iter.                  ...        0 min,  0.497 sec
     gradient                   ...        0 min,  0.541 sec
 * total energy  :  -287.1778786 Eh     change       -0.9610306E-04 Eh
   gradient norm :     0.0045899 Eh/α   predicted    -0.6822756E-04 ( -29.01%)
   displ. norm   :     0.3849759 α      lambda       -0.1570237E-03
   maximum displ.:     0.1453296 α      in ANC's #6, #44, #20, ...

........................................................................
.............................. CYCLE   53 ..............................
........................................................................

 iter      E             dE          RMSdq      gap      omega  full diag
   1   -291.0137910 -0.291014E+03  0.410E-02    1.51       0.0  T
[...]
   114   6 C    3.924 --   116 O    1.755   117 O    1.154   113 C    0.972
   115   6 C    3.913 --   119 O    1.711   118 O    1.170   110 C    0.969
   116   8 O    2.053 --   114 C    1.755   117 O    0.172
   117   8 O    2.210 --   114 C    1.154   124 H    0.808   116 O    0.172
   118   8 O    2.213 --   115 C    1.170   125 H    0.794   119 O    0.161
   119   8 O    2.035 --   115 C    1.711   118 O    0.161
   120   1 H    0.995 --   108 C    0.965
   121   1 H    0.996 --   109 C    0.967
   122   1 H    0.997 --   111 C    0.963
   123   1 H    0.996 --   112 C    0.953
   124   1 H    0.875 --   117 O    0.808
   125   1 H    0.877 --   118 O    0.794
   126   6 C    3.949 --   127 O    1.642     1 N    1.275   128 C    0.987
   127   8 O    1.972 --   126 C    1.642     1 N    0.192
   128   6 C    3.992 --   126 C    0.987   129 H    0.977   131 H    0.971
                           130 H    0.961
   129   1 H    0.994 --   128 C    0.977
   130   1 H    0.996 --   128 C    0.961
   131   1 H    0.996 --   128 C    0.971
   132   6 C    3.948 --   133 O    1.663    21 N    1.256   134 C    0.984
   133   8 O    1.994 --   132 C    1.663    21 N    0.187
   134   6 C    3.994 --   132 C    0.984   135 H    0.983   136 H    0.975
                           137 H    0.965
   135   1 H    0.995 --   134 C    0.983
   136   1 H    0.997 --   134 C    0.975
   137   1 H    0.996 --   134 C    0.965
   138   6 C    3.947 --   139 O    1.652    48 N    1.267   140 C    0.985
   139   8 O    1.957 --   138 C    1.652    48 N    0.188
   140   6 C    3.991 --   142 H    0.985   138 C    0.985   143 H    0.964
                           141 H    0.957
   141   1 H    0.992 --   140 C    0.957
   142   1 H    0.997 --   140 C    0.985
   143   1 H    0.996 --   140 C    0.964
   144   6 C    3.949 --   145 O    1.712    72 N    1.216   146 C    0.979
   145   8 O    2.025 --   144 C    1.712    72 N    0.191
   146   6 C    3.992 --   149 H    0.983   144 C    0.979   147 H    0.972
                           148 H    0.968
   147   1 H    0.996 --   146 C    0.972
   148   1 H    0.996 --   146 C    0.968
   149   1 H    0.994 --   146 C    0.983
   150   6 C    3.946 --   151 O    1.701    91 N    1.219   152 C    0.986
   151   8 O    2.003 --   150 C    1.701    91 N    0.185
   152   6 C    3.992 --   150 C    0.986   154 H    0.981   155 H    0.973
                           153 H    0.965
   153   1 H    0.996 --   152 C    0.965
   154   1 H    0.994 --   152 C    0.981
   155   1 H    0.996 --   152 C    0.973
   156   7 N    3.461 --     3 C    1.286   158 C    1.007   157 H    0.914
                             4 O    0.206
   157   1 H    0.957 --   156 N    0.914
   158   6 C    3.968 --   156 N    1.007   161 H    0.978   160 H    0.977
                           159 H    0.977
   159   1 H    0.998 --   158 C    0.977
   160   1 H    0.994 --   158 C    0.977
   161   1 H    0.997 --   158 C    0.978
   162   7 N    3.451 --    33 C    1.277   164 C    1.006   163 H    0.908
                            34 O    0.204
   163   1 H    0.959 --   162 N    0.908
   164   6 C    3.967 --   162 N    1.006   166 H    0.978   167 H    0.978
                           165 H    0.977
   165   1 H    0.993 --   164 C    0.977
   166   1 H    0.998 --   164 C    0.978
   167   1 H    0.997 --   164 C    0.978
   168   7 N    3.454 --    50 C    1.265   170 C    1.001   169 H    0.944
                            51 O    0.205
   169   1 H    0.971 --   168 N    0.944
   170   6 C    3.959 --   168 N    1.001   172 H    0.978   173 H    0.975
                           171 H    0.975
   171   1 H    0.997 --   170 C    0.975
   172   1 H    0.997 --   170 C    0.978
   173   1 H    0.991 --   170 C    0.975
   174   7 N    3.468 --    74 C    1.294   176 C    0.997   175 H    0.939
                            75 O    0.194
   175   1 H    0.969 --   174 N    0.939
   176   6 C    3.957 --   174 N    0.997   178 H    0.981   177 H    0.974
                           179 H    0.971
   177   1 H    0.993 --   176 C    0.974
   178   1 H    0.996 --   176 C    0.981
   179   1 H    0.994 --   176 C    0.971
   180   7 N    3.446 --    93 C    1.257   182 C    1.000   181 H    0.941
                            94 O    0.206
   181   1 H    0.970 --   180 N    0.941
   182   6 C    3.957 --   180 N    1.000   183 H    0.977   185 H    0.977
                           184 H    0.974
   183   1 H    0.996 --   182 C    0.977
   184   1 H    0.991 --   182 C    0.974
   185   1 H    0.997 --   182 C    0.977
 ---------------------------------------------------------------------------

Topologies differ in bond orders
Writing corrected topology to xtbtopo.mol

molecular dipole:
                 x           y           z       tot (Debye)
 q only:       -3.234      -7.730      -0.308
   full:       -3.673     -10.912      -0.162      29.268
molecular quadrupole (traceless):
                xx          xy          yy          xz          yz          zz
 q only:     -229.676    -462.117     107.129    -264.236    -668.838     122.547
  q+dip:     -262.673    -662.605      91.808    -294.267    -945.029     170.865
   full:     -262.897    -662.782      90.784    -293.906    -947.060     172.113

           -------------------------------------------------
          |                Geometry Summary                 |
           -------------------------------------------------

      molecular mass/u    :     1317.5566169
   center of mass at/Å    :       23.6146881       3.2704423      31.1757314
  moments of inertia/u·Å² :        0.2586432E+05   0.3600124E+05   0.3900716E+05
rotational constants/cm⁻¹ :        0.6517717E-03   0.4682514E-03   0.4321677E-03

 * 166 selected distances

     #   Z          #   Z                                           value/Å
     1   7 N        2   6 C                                       1.4593500
     3   6 C        4   8 O                                       1.2170545
     2   6 C        5   6 C                                       1.5348595
     6   6 C        7   6 C                                       1.3896670
     6   6 C        8   6 C                                       1.3883839
     7   6 C        9   6 C                                       1.3830968
     8   6 C       10   6 C                                       1.3838068
     9   6 C       11   6 C                                       1.3845636
    10   6 C       11   6 C                                       1.3840991
     1   7 N       12   1 H                                       0.9831020
     2   6 C       13   1 H                                       1.0954446
     5   6 C       14   1 H                                       1.0907459
     5   6 C       15   1 H                                       1.0908845
     7   6 C       16   1 H                                       1.0820250
     8   6 C       17   1 H                                       1.0825823
     9   6 C       18   1 H                                       1.0824228
    10   6 C       19   1 H                                       1.0828855
    11   6 C       20   1 H                                       1.0825957
    21   7 N       22   6 C                                       1.4713740
    23   6 C       24   8 O                                       1.2238131
    22   6 C       25   6 C                                       1.5231094
    21   7 N       26   1 H                                       0.9802713
    22   6 C       27   1 H                                       1.0945008
    25   6 C       28   1 H                                       1.0579092
    25   6 C       29   1 H                                       1.0622106
    25   6 C       30   1 H                                       1.0609464
    23   6 C       31   7 N                                       1.3362849
    31   7 N       32   6 C                                       1.4615603
    33   6 C       34   8 O                                       1.2142035
    32   6 C       35   6 C                                       1.5247021
    35   6 C       36   6 C                                       1.5220396
    31   7 N       39   1 H                                       0.9834770
    32   6 C       40   1 H                                       1.0981657
    35   6 C       41   1 H                                       1.0910498
    35   6 C       42   1 H                                       1.0910374
    36   6 C       43   1 H                                       1.0906330
    36   6 C       44   1 H                                       1.0896350
    38   6 C       45   1 H                                       1.0859785
    38   6 C       46   1 H                                       1.0882792
    38   6 C       47   1 H                                       1.0878772
    48   7 N       49   6 C                                       1.4546733
    50   6 C       51   8 O                                       1.2133924
    52   6 C       53   6 C                                       1.4913773
    53   6 C       54   6 C                                       1.3656710
    53   6 C       55   6 C                                       1.4294894
    54   6 C       56   7 N                                       1.3663326
    55   6 C       57   6 C                                       1.4181071
    56   7 N       57   6 C                                       1.3647724
    55   6 C       58   6 C                                       1.3956876
    57   6 C       59   6 C                                       1.3889444
    58   6 C       60   6 C                                       1.3763383
    59   6 C       61   6 C                                       1.3773425
    60   6 C       61   6 C                                       1.3983286
    48   7 N       62   1 H                                       0.9849706
    49   6 C       63   1 H                                       1.0952700
    52   6 C       64   1 H                                       1.0914467
    52   6 C       65   1 H                                       1.0906893
    54   6 C       66   1 H                                       1.0742609
    56   7 N       67   1 H                                       1.0068736
    58   6 C       68   1 H                                       1.0815046
    59   6 C       69   1 H                                       1.0820520
    60   6 C       70   1 H                                       1.0823375
    61   6 C       71   1 H                                       1.0822526
    72   7 N       73   6 C                                       1.4543316
    74   6 C       75   8 O                                       1.2208954
    73   6 C       76   6 C                                       1.5382253 (max)
    76   6 C       77   6 C                                       1.5375925
    76   6 C       78   6 C                                       1.5198447
    77   6 C       79   6 C                                       1.5240095
    72   7 N       80   1 H                                       0.9815482
    73   6 C       81   1 H                                       1.0991860
    76   6 C       82   1 H                                       1.0939431
    77   6 C       83   1 H                                       1.0909091
    77   6 C       84   1 H                                       1.0918658
    78   6 C       85   1 H                                       1.0857740
    78   6 C       86   1 H                                       1.0867503
    78   6 C       87   1 H                                       1.0865235
    79   6 C       88   1 H                                       1.0881067
    79   6 C       89   1 H                                       1.0882013
    79   6 C       90   1 H                                       1.0862704
    91   7 N       92   6 C                                       1.4573560
    93   6 C       94   8 O                                       1.2105635
    95   6 C       96   6 C                                       1.4851908
    96   6 C       97   7 N                                       1.3714095
    96   6 C       98   6 C                                       1.3680901
    97   7 N       99   6 C                                       1.3511759
    98   6 C      100   7 N                                       1.3588828
    99   6 C      100   7 N                                       1.3042846
    91   7 N      101   1 H                                       0.9828447
    92   6 C      102   1 H                                       1.0949571
    95   6 C      103   1 H                                       1.0943094
    95   6 C      104   1 H                                       1.0914397
    97   7 N      105   1 H                                       1.0054541
    98   6 C      106   1 H                                       1.0744327
    99   6 C      107   1 H                                       1.0755325
   108   6 C      109   6 C                                       1.3819049
   109   6 C      110   6 C                                       1.3924847
   110   6 C      111   6 C                                       1.3893709
   111   6 C      112   6 C                                       1.3818114
   108   6 C      113   6 C                                       1.3931676
   112   6 C      113   6 C                                       1.3887335
   114   6 C      116   8 O                                       1.2027765
   114   6 C      117   8 O                                       1.3327897
   115   6 C      118   8 O                                       1.3247830
   115   6 C      119   8 O                                       1.2095924
   108   6 C      120   1 H                                       1.0790883
   109   6 C      121   1 H                                       1.0795354
   111   6 C      122   1 H                                       1.0784703
   112   6 C      123   1 H                                       1.0775946
   117   8 O      124   1 H                                       0.9802433 (min)
   118   8 O      125   1 H                                       0.9842443
     1   7 N      126   6 C                                       1.3462527
   126   6 C      127   8 O                                       1.2214826
   128   6 C      129   1 H                                       1.0868222
   128   6 C      130   1 H                                       1.0889524
   128   6 C      131   1 H                                       1.0851805
    21   7 N      132   6 C                                       1.3506172
   132   6 C      133   8 O                                       1.2159294
   134   6 C      135   1 H                                       1.0873626
   134   6 C      136   1 H                                       1.0877452
   134   6 C      137   1 H                                       1.0887909
    48   7 N      138   6 C                                       1.3484636
   138   6 C      139   8 O                                       1.2216062
   140   6 C      141   1 H                                       1.0885853
   140   6 C      142   1 H                                       1.0879224
   140   6 C      143   1 H                                       1.0884545
    72   7 N      144   6 C                                       1.3602115
   144   6 C      145   8 O                                       1.2090042
   146   6 C      147   1 H                                       1.0892378
   146   6 C      148   1 H                                       1.0884861
   146   6 C      149   1 H                                       1.0866010
    91   7 N      150   6 C                                       1.3614617
   150   6 C      151   8 O                                       1.2126486
   152   6 C      153   1 H                                       1.0894355
   152   6 C      154   1 H                                       1.0867964
   152   6 C      155   1 H                                       1.0881380
     3   6 C      156   7 N                                       1.3435580
   156   7 N      157   1 H                                       0.9858317
   156   7 N      158   6 C                                       1.4417249
   158   6 C      159   1 H                                       1.0913961
   158   6 C      160   1 H                                       1.0894383
   158   6 C      161   1 H                                       1.0912036
    33   6 C      162   7 N                                       1.3446509
   162   7 N      163   1 H                                       0.9834715
   162   7 N      164   6 C                                       1.4427371
   164   6 C      165   1 H                                       1.0889212
   164   6 C      166   1 H                                       1.0909119
   164   6 C      167   1 H                                       1.0909861
    50   6 C      168   7 N                                       1.3466871
   168   7 N      169   1 H                                       0.9813368
   168   7 N      170   6 C                                       1.4438917
   170   6 C      171   1 H                                       1.0912809
   170   6 C      172   1 H                                       1.0906208
   170   6 C      173   1 H                                       1.0888139
    74   6 C      174   7 N                                       1.3427077
   174   7 N      175   1 H                                       0.9821231
   174   7 N      176   6 C                                       1.4473926
   176   6 C      177   1 H                                       1.0886055
   176   6 C      178   1 H                                       1.0887596
   176   6 C      179   1 H                                       1.0927020
    93   6 C      180   7 N                                       1.3504028
   180   7 N      181   1 H                                       0.9816515
   180   7 N      182   6 C                                       1.4460898
   182   6 C      183   1 H                                       1.0905042
   182   6 C      184   1 H                                       1.0887553
   182   6 C      185   1 H                                       1.0904020

 * 6 distinct bonds (by element types)

   Z      Z             #   av. dist./Å        max./Å        min./Å
   1 H    6 C          77     1.0867834     1.0991860     1.0579092
   6 C    6 C          31     1.4309690     1.5382253     1.3656710
   1 H    7 N          13     0.9863812     1.0068736     0.9802713
   6 C    7 N          28     1.3903085     1.4713740     1.3042846
   1 H    8 O           2     0.9822438     0.9842443     0.9802433
   6 C    8 O          15     1.2300357     1.3327897     1.2027765


optimized geometry written to: xtbopt.mol


           -------------------------------------------------
          | TOTAL ENERGY             -287.181237400042 Eh   |
          | GRADIENT NORM               0.001827191073 Eh/α |
          | HOMO-LUMO GAP               1.533644702457 eV   |
           -------------------------------------------------

------------------------------------------------------------------------
 * finished run on 2024/06/10 at 18:52:35.479     
------------------------------------------------------------------------
 total:
 * wall-time:     0 d,  0 h,  3 min, 54.950 sec
 *  cpu-time:     0 d,  0 h,  3 min, 30.700 sec
 * ratio c/w:     0.897 speedup
 SCF:
 * wall-time:     0 d,  0 h,  0 min,  2.132 sec
 *  cpu-time:     0 d,  0 h,  0 min,  1.882 sec
 * ratio c/w:     0.883 speedup
 ANC optimizer:
 * wall-time:     0 d,  0 h,  3 min, 49.120 sec
 *  cpu-time:     0 d,  0 h,  3 min, 28.574 sec
 * ratio c/w:     0.910 speedup

