185
 energy: -286.774604155336 gnorm: 1.040810302898 xtb: 6.6.1 (8d0f1dd)
N           20.44800000000000        7.52500000000000       29.90600000000000
C           21.05500000000000        8.26300000000000       28.80300000000000
C           20.30000000000000        8.01200000000000       27.50200000000000
O           19.96600000000000        6.87000000000000       27.17600000000000
C           22.52300000000000        7.86600000000000       28.63500000000000
C           23.29800000000000        8.78100000000000       27.73100000000000
C           23.72900000000000       10.02100000000000       28.18000000000000
C           23.59800000000000        8.40600000000000       26.43000000000000
C           24.44300000000000       10.86400000000000       27.34900000000000
C           24.31200000000000        9.24600000000000       25.59800000000000
C           24.73400000000000       10.47700000000000       26.05800000000000
H           20.97200000000000        6.93400000000000       30.24500000000000
H           21.00700000000000        9.32800000000000       29.03100000000000
H           23.01100000000000        7.85600000000000       29.60800000000000
H           22.58200000000000        6.85700000000000       28.22900000000000
H           23.49900000000000       10.32700000000000       29.20100000000000
H           23.26400000000000        7.43300000000000       26.06600000000000
H           24.77500000000000       11.83500000000000       27.71400000000000
H           24.54200000000000        8.93800000000000       24.57800000000000
H           25.29600000000000       11.14100000000000       25.40300000000000
N           19.69500000000000        3.13100000000000       34.60900000000000
C           20.91100000000000        3.35700000000000       33.81200000000000
C           21.60700000000000        4.57800000000000       34.40400000000000
O           21.81200000000000        4.61100000000000       35.62800000000000
C           20.53200000000000        3.45100000000000       32.33800000000000
H           19.71700000000000        2.38900000000000       35.04299999999999
H           21.54400000000000        2.47400000000000       33.90100000000000
H           21.34100000000000        3.52100000000000       31.80800000000000
H           20.04100000000000        2.65300000000000       32.08900000000000
H           19.97900000000000        4.23600000000000       32.20300000000000
N           21.98100000000000        5.58800000000000       33.61300000000000
C           22.60400000000000        6.76100000000000       34.22300000000000
C           21.67000000000000        7.41400000000000       35.23700000000000
O           22.12900000000000        8.14800000000000       36.12100000000000
C           23.00700000000000        7.76600000000000       33.14600000000000
C           24.22100000000000        7.35400000000000       32.32300000000000
S           24.86700000000000        8.70300000000000       31.31500000000000
C           25.96400000000000        7.81000000000000       30.21800000000000
H           21.88900000000000        5.61700000000000       32.75800000000000
H           23.49800000000000        6.44000000000000       34.75600000000000
H           22.17500000000000        7.91700000000000       32.46000000000000
H           23.22900000000000        8.72800000000000       33.61000000000000
H           25.01200000000000        7.01200000000000       32.98900000000000
H           23.95000000000000        6.53100000000000       31.66300000000000
H           26.44100000000000        8.51000000000000       29.53100000000000
H           26.72800000000000        7.29800000000000       30.80400000000000
H           25.39100000000000        7.07700000000000       29.64900000000000
N           24.50000000000000        3.08100000000000       36.03900000000000
C           25.77900000000000        3.37400000000000       35.41100000000000
C           26.34800000000000        4.61500000000000       36.07599999999999
O           25.64300000000000        5.61700000000000       36.22700000000000
C           25.62200000000000        3.59900000000000       33.90600000000000
C           26.92600000000000        3.76300000000000       33.18600000000000
C           27.62100000000000        2.79400000000000       32.52700000000000
C           27.70300000000000        4.97800000000000       33.04800000000000
N           28.77200000000000        3.31800000000000       31.99200000000000
C           28.83700000000000        4.65300000000000       32.30000000000000
C           27.52800000000000        6.29400000000000       33.49300000000000
C           29.80200000000000        5.59700000000000       31.98300000000000
C           28.49500000000000        7.24100000000000       33.17400000000000
C           29.60100000000000        6.90000000000000       32.43800000000000
H           23.95300000000000        3.74300000000000       36.00200000000000
H           26.44100000000000        2.52200000000000       35.56000000000000
H           25.09100000000000        2.75400000000000       33.46500000000000
H           25.02000000000000        4.49000000000000       33.73200000000000
H           27.30900000000000        1.75500000000000       32.43800000000000
H           29.45900000000000        2.80500000000000       31.45900000000000
H           26.65000000000000        6.57000000000000       34.07500000000000
H           30.68800000000000        5.34600000000000       31.40000000000000
H           28.35200000000000        8.26300000000000       33.52500000000000
H           30.34000000000000        7.66800000000000       32.20600000000000
N           26.13100000000000       -2.77200000000000       28.87400000000000
C           26.24300000000000       -1.32200000000000       28.86800000000000
C           26.66700000000000       -0.80200000000000       30.23200000000000
O           27.38200000000000        0.19900000000000       30.32999999999999
C           24.91000000000000       -0.66900000000000       28.45900000000000
C           24.62100000000000       -0.92800000000000       26.97800000000000
C           24.93900000000000        0.82400000000000       28.74600000000000
C           23.24200000000000       -0.48900000000000       26.54000000000000
H           25.34800000000000       -3.05600000000000       29.09300000000000
H           27.00300000000000       -1.03700000000000       28.14100000000000
H           24.09500000000000       -1.12200000000000       29.02300000000000
H           25.35600000000000       -0.40500000000000       26.36800000000000
H           24.72100000000000       -1.99300000000000       26.76900000000000
H           23.99000000000000        1.27000000000000       28.45100000000000
H           25.10000000000000        0.98700000000000       29.81100000000000
H           25.74900000000000        1.28700000000000       28.18200000000000
H           23.11200000000000       -0.70600000000000       25.47900000000000
H           22.48800000000000       -1.02800000000000       27.11600000000000
H           23.13100000000000        0.58100000000000       26.70800000000000
N           20.46200000000000       -4.78800000000000       29.52199999999999
C           20.46900000000000       -3.43400000000000       30.06100000000000
C           19.08100000000000       -2.80900000000000       30.14600000000000
O           18.77900000000000       -2.10800000000000       31.11700000000000
C           21.37400000000000       -2.53500000000000       29.21200000000000
C           21.45200000000000       -1.12300000000000       29.70500000000000
N           22.02400000000000       -0.78900000000000       30.91500000000000
C           21.03200000000000        0.03900000000000       29.15300000000000
C           21.95200000000000        0.52000000000000       31.08500000000000
N           21.35400000000000        1.04500000000000       30.03100000000000
H           21.04200000000000       -4.92000000000000       28.90000000000000
H           20.85800000000000       -3.44900000000000       31.07800000000000
H           22.38300000000000       -2.94700000000000       29.19500000000000
H           21.00900000000000       -2.51800000000000       28.18500000000000
H           22.49800000000000       -1.41200000000000       31.53700000000000
H           20.52800000000000        0.27400000000000       28.21500000000000
H           22.35200000000000        0.98600000000000       31.98500000000000
C           25.41600000000000        4.48900000000000       27.60200000000000
C           24.12000000000000        4.73000000000000       28.00400000000000
C           23.72000000000000        4.40600000000000       29.30200000000000
C           24.63200000000000        3.83500000000000       30.19200000000000
C           25.92800000000000        3.59300000000000       29.78900000000000
C           26.32900000000000        3.91900000000000       28.49200000000000
C           27.71700000000000        3.65400000000000       28.05800000000000
C           22.32999999999999        4.66700000000000       29.73400000000000
O           28.20700000000000        4.30200000000000       27.15600000000000
O           28.44100000000000        2.69100000000000       28.66400000000000
O           21.31200000000000        3.97500000000000       29.18500000000000
O           22.10500000000000        5.50400000000000       30.58400000000000
H           25.72500000000000        4.73700000000000       26.59800000000000
H           23.41500000000000        5.17200000000000       27.31700000000000
H           24.32400000000000        3.58500000000000       31.19600000000000
H           26.63400000000000        3.15200000000000       30.47800000000000
H           27.95000000000000        1.96500000000000       29.07100000000000
H           21.25800000000000        3.03300000000000       29.39500000000000
C           19.20800000000000        7.75300000000000       30.33599999999999
O           18.44600000000000        8.56500000000000       29.80800000000000
C           18.85100000000000        7.01100000000000       31.46800000000000
H           17.92600000000000        7.41000000000000       31.88800000000000
H           18.70200000000000        5.96800000000000       31.18800000000000
H           19.64500000000000        7.07700000000000       32.21200000000000
C           18.66900000000000        3.98000000000000       34.65600000000000
O           18.70700000000000        5.12700000000000       34.19800000000000
C           17.50600000000000        3.49900000000000       35.26900000000000
H           16.75400000000000        4.28800000000000       35.29199999999999
H           17.12200000000000        2.64800000000000       34.70400000000000
H           17.73500000000000        3.18400000000000       36.28800000000000
C           24.19900000000000        1.91300000000000       36.61600000000000
O           24.96500000000000        0.95000000000000       36.61900000000000
C           22.94400000000000        1.86000000000000       37.23300000000000
H           22.16400000000000        2.01300000000000       36.48600000000000
H           22.81000000000000        0.88400000000000       37.70200000000000
H           22.87800000000000        2.63900000000000       37.99200000000000
C           27.14700000000000       -3.56600000000000       28.56800000000000
O           28.28700000000000       -3.14200000000000       28.33600000000000
C           26.90800000000000       -4.94500000000000       28.56300000000000
H           26.84900000000000       -5.30800000000000       29.59000000000000
H           25.96700000000000       -5.15000000000000       28.05200000000000
H           27.72100000000000       -5.45400000000000       28.04500000000000
C           19.61400000000000       -5.71200000000000       29.97700000000000
O           18.72500000000000       -5.45900000000000       30.79600000000000
C           19.79800000000000       -7.00000000000000       29.46000000000000
H           20.22500000000000       -7.64300000000000       30.23000000000000
H           18.83700000000000       -7.40500000000000       29.14100000000000
H           20.47500000000000       -6.95700000000000       28.60700000000000
N           20.00800000000000        9.08900000000000       26.77199999999999
H           20.24700000000000        9.88800000000000       26.97900000000000
C           19.27400000000000        9.01500000000000       25.58200000000000
H           18.21099999999999        9.09300000000000       25.80500000000000
H           19.47500000000000        8.06400000000000       25.08900000000000
H           19.56800000000000        9.83200000000000       24.92200000000000
N           20.35900000000000        7.19000000000000       35.10900000000000
H           19.99200000000000        6.78300000000000       34.44599999999999
C           19.46200000000000        7.62300000000000       36.09300000000000
H           19.95000000000000        8.35700000000000       36.73299999999999
H           19.14200000000000        6.77200000000000       36.69400000000000
H           18.59200000000000        8.07600000000000       35.61800000000000
N           27.61900000000000        4.55700000000000       36.46400000000000
H           28.10600000000000        3.84900000000000       36.43000000000000
C           28.27400000000000        5.68500000000000       36.97300000000000
H           28.81700000000000        6.18300000000000       36.16999999999999
H           28.97300000000000        5.38000000000000       37.75099999999999
H           27.54100000000000        6.37100000000000       37.39600000000000
N           26.19400000000000       -1.45800000000000       31.28900000000000
H           25.66000000000000       -2.13000000000000       31.22500000000000
C           26.50600000000000       -1.13700000000000       32.61500000000000
H           27.56000000000000       -0.87000000000000       32.68700000000000
H           26.30300000000000       -1.99500000000000       33.25500000000000
H           25.89500000000000       -0.29400000000000       32.93900000000000
N           18.23100000000000       -3.01800000000000       29.14400000000000
H           18.35600000000000       -3.58500000000000       28.51000000000000
C           17.03100000000000       -2.30100000000000       29.05700000000000
H           16.65600000000000       -2.34200000000000       28.03500000000000
H           17.20600000000000       -1.26300000000000       29.34000000000000
H           16.29600000000000       -2.73900000000000       29.73300000000000
185
 energy: -287.056668391664 gnorm: 0.300373869039 xtb: 6.6.1 (8d0f1dd)
N           20.44800000000000        7.52500000000000       29.90600000000000
C           21.05500000000000        8.26300000000000       28.80300000000000
C           20.30000000000000        8.01200000000000       27.50200000000000
O           19.97219222466040        6.87685632225023       27.17789129471409
C           22.52495373135574        7.86402600346132       28.63482391251452
C           23.29531035923988        8.78194719763058       27.72963946430744
C           23.72687250909953       10.02246881607931       28.18119576496372
C           23.59649465162126        8.40375778162595       26.42839333256460
C           24.44230422180500       10.86536167474046       27.34961830987394
C           24.31115807639801        9.24445911591225       25.59502862417851
C           24.73432934059327       10.47783077709961       26.05530752371596
H           21.01468788121518        6.87547152526206       30.28105602609437
H           21.00539416412831        9.33083968154696       29.03232666837640
H           23.00929267817603        7.85759615287997       29.61054039680020
H           22.57769016647307        6.85540843650689       28.22863649915507
H           23.49995667071941       10.32613705723626       29.19867541096009
H           23.26342175100292        7.43474792908817       26.06561877898911
H           24.77381432850548       11.83274159460677       27.71294230898621
H           24.54019827185695        8.93748330939291       24.57902830144786
H           25.29433725896781       11.13937910448601       25.40259569902858
N           19.69500000000000        3.13100000000000       34.60900000000000
C           20.91100000000000        3.35700000000000       33.81200000000000
C           21.60700000000000        4.57800000000000       34.40400000000000
O           21.81255300452959        4.60556886711053       35.61727286637588
C           20.53619851485038        3.45263555589663       32.35103445128163
H           19.71064470121895        2.32074873925434       35.08702530744014
H           21.54672573068758        2.47473291624615       33.91050984371937
H           21.38277614929033        3.52435434497838       31.78603128511195
H           20.01803599983471        2.61354668869485       32.08149260713392
H           19.95148748814999        4.27603407026350       32.20026440509636
N           21.98100000000000        5.58800000000000       33.61300000000000
C           22.60400000000000        6.76100000000000       34.22300000000000
C           21.67000000000000        7.41400000000000       35.23700000000000
O           22.13081723201646        8.14079939626954       36.11114003939898
C           23.00593920996614        7.76949400597926       33.14325932345399
C           24.22068689399665        7.34701999048587       32.32515969224415
S           24.86387081214112        8.70921690753213       31.31456971086072
C           25.96538925615515        7.80564320355326       30.21680214067758
H           21.87767754324316        5.61718587824018       32.67709295022949
H           23.49915680772939        6.44130676248697       34.76131026759538
H           22.17178942555558        7.91975509453223       32.45914780749725
H           23.22881914590673        8.72814232363325       33.61288593282696
H           25.01516491175015        7.01217565687878       32.98897904999460
H           23.95134473037812        6.52871296043145       31.65944259524338
H           26.43784247543264        8.50961546742963       29.53281338753521
H           26.72932199402991        7.29748200712056       30.80320632226550
H           25.39149228857407        7.07621352731577       29.64686017907276
N           24.50000000000000        3.08100000000000       36.03900000000000
C           25.77900000000000        3.37400000000000       35.41100000000000
C           26.34800000000000        4.61500000000000       36.07599999999999
O           25.64743561322413        5.60942797194081       36.22161561770898
C           25.62222490382548        3.60245724559295       33.90058265880408
C           26.92780560155454        3.76763084278913       33.18737534807565
C           27.62178177658106        2.79499417173271       32.52864007674272
C           27.69852020933282        4.97955754932671       33.05073698369131
N           28.77221772142340        3.31596523464540       31.99123181884591
C           28.83985494267974        4.65092419428100       32.29707401827632
C           27.52633481067294        6.29417651554478       33.49255269298701
C           29.80434107349937        5.59908138089811       31.98050962625925
C           28.48899966079091        7.23934180272305       33.17585926773769
C           29.60574726629496        6.89695615429349       32.43325264614901
H           23.89634454847441        3.80502624771936       36.00502079777237
H           26.44117541404438        2.51928853725983       35.56201588976756
H           25.09119746594231        2.75210770341211       33.46649097294114
H           25.01801906399529        4.49331093373452       33.73325584001631
H           27.31656560915841        1.75941971888975       32.43420483266960
H           29.45706867458386        2.80426420152783       31.45749353694228
H           26.65423906420477        6.56946197284950       34.07522622838991
H           30.68554042035641        5.34590518728723       31.39944665578664
H           28.35265180248230        8.26007748617063       33.52233858390225
H           30.33981484802525        7.66454074769987       32.20350477523054
N           26.13100000000000       -2.77200000000000       28.87400000000000
C           26.24300000000000       -1.32200000000000       28.86800000000000
C           26.66700000000000       -0.80200000000000       30.23200000000000
O           27.37686243941945        0.19431532226940       30.32831023338959
C           24.90806901600865       -0.67108247623028       28.45582227725432
C           24.62357985228125       -0.93060822988904       26.97489959679410
C           24.93747440964916        0.82202493515407       28.74575005054870
C           23.24031507382863       -0.48948133463881       26.54066615647763
H           25.27678908052759       -3.09043597098100       29.11045431132737
H           27.00635979961441       -1.03803125532757       28.14201573636963
H           24.09391491042142       -1.12314810676840       29.02709306879643
H           25.35860992736565       -0.40532731764518       26.36772984670916
H           24.72263395350670       -1.99627366699861       26.76899431384753
H           23.99139433307028        1.27165259628890       28.45338739075410
H           25.09808840174805        0.99031956860135       29.80847829738468
H           25.74570946778110        1.28662793759645       28.18293669370887
H           23.10901016664754       -0.70514501843863       25.48118796925395
H           22.48561138566236       -1.02585188299931       27.11403799576530
H           23.12615770240290        0.57921723779607       26.70542154102350
N           20.46200000000000       -4.78800000000000       29.52199999999999
C           20.46900000000000       -3.43400000000000       30.06100000000000
C           19.08100000000000       -2.80900000000000       30.14600000000000
O           18.78916258476820       -2.10888614274026       31.10842723353488
C           21.37496972173600       -2.53409797572809       29.21073660856013
C           21.44988588416887       -1.12560812797536       29.70741394039878
N           22.02520068269478       -0.79576919737132       30.91100596654401
C           21.03330946935908        0.05362454850583       29.16282221642442
C           21.94602575163965        0.52842333637112       31.07359142294175
N           21.35539306752482        1.07867228524598       30.02535175477150
H           21.09487703383880       -4.94030569064621       28.84272516124913
H           20.85627865427731       -3.45041140591911       31.08265415219078
H           22.38459284389195       -2.95062395491062       29.19585162381651
H           21.00682818163851       -2.51729866497102       28.18446309184199
H           22.49544437174674       -1.41901348636345       31.53981937176640
H           20.53188951673608        0.27331272030361       28.22583022241028
H           22.34585179543945        0.98901242808039       31.97268125675240
C           25.41741274176368        4.48884688507047       27.60333302718884
C           24.11926926039914        4.72686084979874       28.00389838122826
C           23.71874426414166        4.39961433309818       29.29826704639148
C           24.63075589203629        3.83791255211922       30.19110206935204
C           25.92706138806756        3.59311620275963       29.78774870841425
C           26.32704736025130        3.91393647401774       28.49249678811405
C           27.71933580820799        3.65335574857979       28.05036382496063
C           22.32537596914591        4.66503960711443       29.73643001162733
O           28.20900053696493        4.30090562193024       27.15765238054636
O           28.43908968186959        2.69190204745736       28.65920012896493
O           21.31728230323796        3.95255690373551       29.19949055695108
O           22.10707770880255        5.49894108255440       30.58601990376529
H           25.72652483189047        4.73611448488280       26.59890512810896
H           23.41391264002390        5.16917751547331       27.31686931332624
H           24.32314143072634        3.58614633846142       31.19523054379803
H           26.63251015300868        3.15285005154723       30.47711058268910
H           27.94680519016299        1.96753651355222       29.07543814364176
H           21.26594291291314        3.01352517555037       29.39832011772046
C           19.20300906839324        7.76568410770438       30.32305502219635
O           18.45000669459495        8.57241335628427       29.79892239552535
C           18.84335154493906        7.00092332324987       31.48691626321124
H           17.92238734947673        7.40580489287388       31.89496877639341
H           18.69958460763932        5.96355184226962       31.19454555991772
H           19.64356023014624        7.07186986844680       32.21937824401041
C           18.67829972139908        3.99715684165162       34.65066629082647
O           18.71948086336027        5.12919657842669       34.18884459083944
C           17.48864565063727        3.49289813372953       35.28149054940544
H           16.74838133167923        4.28716118255780       35.29642896973729
H           17.11684410290302        2.64478659324272       34.70898801473771
H           17.72942305246632        3.18038576855539       36.29463670788376
C           24.21662338357201        1.90679235872186       36.61289645421188
O           24.97824383633542        0.94916553692212       36.61152597236433
C           22.92544141349833        1.85757773061228       37.24327996530263
H           22.15716070669243        2.01640817471277       36.49001626659231
H           22.80500047758922        0.88228637010153       37.70610991657964
H           22.87150604450770        2.64118109326258       37.99459672032869
C           27.16698332650685       -3.55546021653933       28.56620444538273
O           28.28701262703958       -3.12938361684948       28.33415879229459
C           26.90225756185989       -4.96838940771472       28.56129882080126
H           26.84715460288080       -5.31674380032569       29.59105305286538
H           25.96145156671905       -5.15999358995595       28.05165264953462
H           27.72000349582230       -5.46194302823496       28.04558098067341
C           19.60185818286968       -5.70326366605405       29.99021749622942
O           18.72643673309380       -5.44948284840757       30.80049650196332
C           19.79985910370826       -7.02044687477362       29.45091439062695
H           20.22374590614212       -7.65043539569112       30.22985257471206
H           18.83575324128697       -7.41397232371589       29.14226044867619
H           20.47718756433908       -6.96732988912553       28.60301356845857
N           20.00632010536810        9.06922242073281       26.76657130100557
H           20.26659015699312        9.94979315446272       27.00236795316620
C           19.26539462157184        9.00948526671985       25.56972479866569
H           18.20408119121918        9.09100362653175       25.80021242128647
H           19.46999260044032        8.05924835466803       25.08447911239005
H           19.56545824306784        9.83090458254064       24.91928344519663
N           20.37143109233303        7.20422504700374       35.12392941635727
H           19.96794468169214        6.74596632249886       34.39610581066874
C           19.45605047909433        7.63071419335412       36.10502645969882
H           19.95060895955416        8.36067827042434       36.73860889669798
H           19.13976630908821        6.77316438451493       36.69920400568011
H           18.58952733609067        8.07812607258580       35.62046266722447
N           27.60755305814159        4.57344327667773       36.46446074072865
H           28.14188603781540        3.79103996209123       36.42188985665307
C           28.28006114560376        5.69998068416393       36.97773453255450
H           28.82189138050757        6.19039552332859       36.16922013391468
H           28.97670422025222        5.38347769447903       37.75204769206341
H           27.54209512535264        6.37803069358728       37.39638392047873
N           26.20563743832248       -1.44437508678738       31.28836580143381
H           25.61870896824699       -2.18462000524441       31.21329594859782
C           26.51223714228438       -1.12872817745561       32.62771319561431
H           27.56430004032087       -0.86603522173628       32.69233703167611
H           26.30535615829235       -1.99283265267935       33.25740420795375
H           25.89655459091864       -0.28915320918725       32.94769111538093
N           18.23324070239742       -3.00070747993491       29.15496738910177
H           18.37084972943165       -3.63185230321069       28.46194058998325
C           17.01755661650903       -2.29255697336761       29.06204008749626
H           16.65280944715006       -2.34069958129161       28.03722699905988
H           17.20029439509734       -1.25844533895627       29.34424651367230
H           16.28801419402190       -2.73562881065848       29.73747330901887
185
 energy: -287.116856318259 gnorm: 0.131782608040 xtb: 6.6.1 (8d0f1dd)
N           20.44800000000000        7.52500000000000       29.90600000000000
C           21.05500000000000        8.26300000000000       28.80300000000000
C           20.30000000000000        8.01200000000000       27.50200000000000
O           19.98521070705320        6.88117111381776       27.16820973028306
C           22.52595297189382        7.86228732205653       28.63541708782008
C           23.28987318678172        8.78364366579147       27.72732903170768
C           23.72147144809428       10.02456249403127       28.18056328647859
C           23.59294992381042        8.40333236788250       26.42646449396206
C           24.43911398055136       10.86611137259393       27.34924459142539
C           24.30860046781213        9.24391002171659       25.59272033457548
C           24.73280105612477       10.47825673526220       26.05312861740122