185
 energy: -286.774604155336 gnorm: 1.040810302898 xtb: 6.6.1 (8d0f1dd)
N           20.44800000000000        7.52500000000000       29.90600000000000
C           21.05500000000000        8.26300000000000       28.80300000000000
C           20.30000000000000        8.01200000000000       27.50200000000000
O           19.96600000000000        6.87000000000000       27.17600000000000
C           22.52300000000000        7.86600000000000       28.63500000000000
C           23.29800000000000        8.78100000000000       27.73100000000000
C           23.72900000000000       10.02100000000000       28.18000000000000
C           23.59800000000000        8.40600000000000       26.43000000000000
C           24.44300000000000       10.86400000000000       27.34900000000000
C           24.31200000000000        9.24600000000000       25.59800000000000
C           24.73400000000000       10.47700000000000       26.05800000000000
H           20.97200000000000        6.93400000000000       30.24500000000000
H           21.00700000000000        9.32800000000000       29.03100000000000
H           23.01100000000000        7.85600000000000       29.60800000000000
H           22.58200000000000        6.85700000000000       28.22900000000000
H           23.49900000000000       10.32700000000000       29.20100000000000
H           23.26400000000000        7.43300000000000       26.06600000000000
H           24.77500000000000       11.83500000000000       27.71400000000000
H           24.54200000000000        8.93800000000000       24.57800000000000
H           25.29600000000000       11.14100000000000       25.40300000000000
N           19.69500000000000        3.13100000000000       34.60900000000000
C           20.91100000000000        3.35700000000000       33.81200000000000
C           21.60700000000000        4.57800000000000       34.40400000000000
O           21.81200000000000        4.61100000000000       35.62800000000000
C           20.53200000000000        3.45100000000000       32.33800000000000
H           19.71700000000000        2.38900000000000       35.04299999999999
H           21.54400000000000        2.47400000000000       33.90100000000000
H           21.34100000000000        3.52100000000000       31.80800000000000
H           20.04100000000000        2.65300000000000       32.08900000000000
H           19.97900000000000        4.23600000000000       32.20300000000000
N           21.98100000000000        5.58800000000000       33.61300000000000
C           22.60400000000000        6.76100000000000       34.22300000000000
C           21.67000000000000        7.41400000000000       35.23700000000000
O           22.12900000000000        8.14800000000000       36.12100000000000
C           23.00700000000000        7.76600000000000       33.14600000000000
C           24.22100000000000        7.35400000000000       32.32300000000000
S           24.86700000000000        8.70300000000000       31.31500000000000
C           25.96400000000000        7.81000000000000       30.21800000000000
H           21.88900000000000        5.61700000000000       32.75800000000000
H           23.49800000000000        6.44000000000000       34.75600000000000
H           22.17500000000000        7.91700000000000       32.46000000000000
H           23.22900000000000        8.72800000000000       33.61000000000000
H           25.01200000000000        7.01200000000000       32.98900000000000
H           23.95000000000000        6.53100000000000       31.66300000000000
H           26.44100000000000        8.51000000000000       29.53100000000000
H           26.72800000000000        7.29800000000000       30.80400000000000
H           25.39100000000000        7.07700000000000       29.64900000000000
N           24.50000000000000        3.08100000000000       36.03900000000000
C           25.77900000000000        3.37400000000000       35.41100000000000
C           26.34800000000000        4.61500000000000       36.07599999999999
O           25.64300000000000        5.61700000000000       36.22700000000000
C           25.62200000000000        3.59900000000000       33.90600000000000
C           26.92600000000000        3.76300000000000       33.18600000000000
C           27.62100000000000        2.79400000000000       32.52700000000000
C           27.70300000000000        4.97800000000000       33.04800000000000
N           28.77200000000000        3.31800000000000       31.99200000000000
C           28.83700000000000        4.65300000000000       32.30000000000000
C           27.52800000000000        6.29400000000000       33.49300000000000
C           29.80200000000000        5.59700000000000       31.98300000000000
C           28.49500000000000        7.24100000000000       33.17400000000000
C           29.60100000000000        6.90000000000000       32.43800000000000
H           23.95300000000000        3.74300000000000       36.00200000000000
H           26.44100000000000        2.52200000000000       35.56000000000000
H           25.09100000000000        2.75400000000000       33.46500000000000
H           25.02000000000000        4.49000000000000       33.73200000000000
H           27.30900000000000        1.75500000000000       32.43800000000000
H           29.45900000000000        2.80500000000000       31.45900000000000
H           26.65000000000000        6.57000000000000       34.07500000000000
H           30.68800000000000        5.34600000000000       31.40000000000000
H           28.35200000000000        8.26300000000000       33.52500000000000
H           30.34000000000000        7.66800000000000       32.20600000000000
N           26.13100000000000       -2.77200000000000       28.87400000000000
C           26.24300000000000       -1.32200000000000       28.86800000000000
C           26.66700000000000       -0.80200000000000       30.23200000000000
O           27.38200000000000        0.19900000000000       30.32999999999999
C           24.91000000000000       -0.66900000000000       28.45900000000000
C           24.62100000000000       -0.92800000000000       26.97800000000000
C           24.93900000000000        0.82400000000000       28.74600000000000
C           23.24200000000000       -0.48900000000000       26.54000000000000
H           25.34800000000000       -3.05600000000000       29.09300000000000
H           27.00300000000000       -1.03700000000000       28.14100000000000
H           24.09500000000000       -1.12200000000000       29.02300000000000
H           25.35600000000000       -0.40500000000000       26.36800000000000
H           24.72100000000000       -1.99300000000000       26.76900000000000
H           23.99000000000000        1.27000000000000       28.45100000000000
H           25.10000000000000        0.98700000000000       29.81100000000000
H           25.74900000000000        1.28700000000000       28.18200000000000
H           23.11200000000000       -0.70600000000000       25.47900000000000
H           22.48800000000000       -1.02800000000000       27.11600000000000
H           23.13100000000000        0.58100000000000       26.70800000000000
N           20.46200000000000       -4.78800000000000       29.52199999999999
C           20.46900000000000       -3.43400000000000       30.06100000000000
C           19.08100000000000       -2.80900000000000       30.14600000000000
O           18.77900000000000       -2.10800000000000       31.11700000000000
C           21.37400000000000       -2.53500000000000       29.21200000000000
C           21.45200000000000       -1.12300000000000       29.70500000000000
N           22.02400000000000       -0.78900000000000       30.91500000000000
C           21.03200000000000        0.03900000000000       29.15300000000000
C           21.95200000000000        0.52000000000000       31.08500000000000
N           21.35400000000000        1.04500000000000       30.03100000000000
H           21.04200000000000       -4.92000000000000       28.90000000000000
H           20.85800000000000       -3.44900000000000       31.07800000000000
H           22.38300000000000       -2.94700000000000       29.19500000000000
H           21.00900000000000       -2.51800000000000       28.18500000000000
H           22.49800000000000       -1.41200000000000       31.53700000000000
H           20.52800000000000        0.27400000000000       28.21500000000000
H           22.35200000000000        0.98600000000000       31.98500000000000
C           25.41600000000000        4.48900000000000       27.60200000000000
C           24.12000000000000        4.73000000000000       28.00400000000000
C           23.72000000000000        4.40600000000000       29.30200000000000
C           24.63200000000000        3.83500000000000       30.19200000000000
C           25.92800000000000        3.59300000000000       29.78900000000000
C           26.32900000000000        3.91900000000000       28.49200000000000
C           27.71700000000000        3.65400000000000       28.05800000000000
C           22.32999999999999        4.66700000000000       29.73400000000000
O           28.20700000000000        4.30200000000000       27.15600000000000
O           28.44100000000000        2.69100000000000       28.66400000000000
O           21.31200000000000        3.97500000000000       29.18500000000000
O           22.10500000000000        5.50400000000000       30.58400000000000
H           25.72500000000000        4.73700000000000       26.59800000000000
H           23.41500000000000        5.17200000000000       27.31700000000000
H           24.32400000000000        3.58500000000000       31.19600000000000
H           26.63400000000000        3.15200000000000       30.47800000000000
H           27.95000000000000        1.96500000000000       29.07100000000000
H           21.25800000000000        3.03300000000000       29.39500000000000
C           19.20800000000000        7.75300000000000       30.33599999999999
O           18.44600000000000        8.56500000000000       29.80800000000000
C           18.85100000000000        7.01100000000000       31.46800000000000
H           17.92600000000000        7.41000000000000       31.88800000000000
H           18.70200000000000        5.96800000000000       31.18800000000000
H           19.64500000000000        7.07700000000000       32.21200000000000
C           18.66900000000000        3.98000000000000       34.65600000000000
O           18.70700000000000        5.12700000000000       34.19800000000000
C           17.50600000000000        3.49900000000000       35.26900000000000
H           16.75400000000000        4.28800000000000       35.29199999999999
H           17.12200000000000        2.64800000000000       34.70400000000000
H           17.73500000000000        3.18400000000000       36.28800000000000
C           24.19900000000000        1.91300000000000       36.61600000000000
O           24.96500000000000        0.95000000000000       36.61900000000000
C           22.94400000000000        1.86000000000000       37.23300000000000
H           22.16400000000000        2.01300000000000       36.48600000000000
H           22.81000000000000        0.88400000000000       37.70200000000000
H           22.87800000000000        2.63900000000000       37.99200000000000
C           27.14700000000000       -3.56600000000000       28.56800000000000
O           28.28700000000000       -3.14200000000000       28.33600000000000
C           26.90800000000000       -4.94500000000000       28.56300000000000
H           26.84900000000000       -5.30800000000000       29.59000000000000
H           25.96700000000000       -5.15000000000000       28.05200000000000
H           27.72100000000000       -5.45400000000000       28.04500000000000
C           19.61400000000000       -5.71200000000000       29.97700000000000
O           18.72500000000000       -5.45900000000000       30.79600000000000
C           19.79800000000000       -7.00000000000000       29.46000000000000
H           20.22500000000000       -7.64300000000000       30.23000000000000
H           18.83700000000000       -7.40500000000000       29.14100000000000
H           20.47500000000000       -6.95700000000000       28.60700000000000
N           20.00800000000000        9.08900000000000       26.77199999999999
H           20.24700000000000        9.88800000000000       26.97900000000000
C           19.27400000000000        9.01500000000000       25.58200000000000
H           18.21099999999999        9.09300000000000       25.80500000000000
H           19.47500000000000        8.06400000000000       25.08900000000000
H           19.56800000000000        9.83200000000000       24.92200000000000
N           20.35900000000000        7.19000000000000       35.10900000000000
H           19.99200000000000        6.78300000000000       34.44599999999999
C           19.46200000000000        7.62300000000000       36.09300000000000
H           19.95000000000000        8.35700000000000       36.73299999999999
H           19.14200000000000        6.77200000000000       36.69400000000000
H           18.59200000000000        8.07600000000000       35.61800000000000
N           27.61900000000000        4.55700000000000       36.46400000000000
H           28.10600000000000        3.84900000000000       36.43000000000000
C           28.27400000000000        5.68500000000000       36.97300000000000
H           28.81700000000000        6.18300000000000       36.16999999999999
H           28.97300000000000        5.38000000000000       37.75099999999999
H           27.54100000000000        6.37100000000000       37.39600000000000
N           26.19400000000000       -1.45800000000000       31.28900000000000
H           25.66000000000000       -2.13000000000000       31.22500000000000
C           26.50600000000000       -1.13700000000000       32.61500000000000
H           27.56000000000000       -0.87000000000000       32.68700000000000
H           26.30300000000000       -1.99500000000000       33.25500000000000
H           25.89500000000000       -0.29400000000000       32.93900000000000
N           18.23100000000000       -3.01800000000000       29.14400000000000
H           18.35600000000000       -3.58500000000000       28.51000000000000
C           17.03100000000000       -2.30100000000000       29.05700000000000
H           16.65600000000000       -2.34200000000000       28.03500000000000
H           17.20600000000000       -1.26300000000000       29.34000000000000
H           16.29600000000000       -2.73900000000000       29.73300000000000
185
 energy: -287.056668405326 gnorm: 0.300373817228 xtb: 6.6.1 (8d0f1dd)
N           20.44800000000000        7.52500000000000       29.90600000000000
C           21.05500000000000        8.26300000000000       28.80300000000000
C           20.30000000000000        8.01200000000000       27.50200000000000
O           19.97219222360660        6.87685631896018       27.17789129532977
C           22.52495373185677        7.86402600355517       28.63482391222388
C           23.29531035927666        8.78194719792961       27.72963946396946
C           23.72687250922750       10.02246881600516       28.18119576510206
C           23.59649465169181        8.40375778147432       26.42839333250953
C           24.44230422188246       10.86536167492181       27.34961831008309
C           24.31115807635721        9.24445911564003       25.59502862379072
C           24.73432934100850       10.47783077702120       26.05530752363544
H           21.01468789581925        6.87547150872082       30.28105603560605
H           21.00539416375716        9.33083968254178       29.03232666824959
H           23.00929267882492        7.85759615270916       29.61054039656664
H           22.57769016692070        6.85540843625655       28.22863649896916
H           23.49995667059226       10.32613705721124       29.19867541090844
H           23.26342175107599        7.43474792896437       26.06561877904981
H           24.77381432817438       11.83274159447076       27.71294230878684
H           24.54019827163496        8.93748330939968       24.57902830160095
H           25.29433725845671       11.13937910441110       25.40259569900009
N           19.69500000000000        3.13100000000000       34.60900000000000
C           20.91100000000000        3.35700000000000       33.81200000000000
C           21.60700000000000        4.57800000000000       34.40400000000000
O           21.81255300324897        4.60556886689161       35.61727286320027
C           20.53619851260815        3.45263555649662       32.35103444301353
H           19.71064470212687        2.32074872883395       35.08702531316337
H           21.54672573040042        2.47473291632303       33.91050984326099
H           21.38277615442167        3.52435434511102       31.78603128527591
H           20.01803599772922        2.61354668405925       32.08149260899152
H           19.95148748565505        4.27603407426709       32.20026440718557
N           21.98100000000000        5.58800000000000       33.61300000000000
C           22.60400000000000        6.76100000000000       34.22300000000000
C           21.67000000000000        7.41400000000000       35.23700000000000
O           22.13081723249089        8.14079939598551       36.11114003875647
C           23.00593920967113        7.76949400599853       33.14325932283108
C           24.22068689441208        7.34701999069929       32.32515969279794
S           24.86387081197291        8.70921690828733       31.31456971044463
C           25.96538925632370        7.80564320315548       30.21680214035608
H           21.87767754222049        5.61718587842984       32.67709293956192
H           23.49915680778765        6.44130676205611       34.76131026720979
H           22.17178942476692        7.91975509452765       32.45914780702645
H           23.22881914606660        8.72814232323885       33.61288593260006
H           25.01516491235548        7.01217565701101       32.98897905025236
H           23.95134472962116        6.52871296152317       31.65944259538864
H           26.43784247627833        8.50961546722827       29.53281338701025
H           26.72932199440040        7.29748200757869       30.80320632191500
H           25.39149228821624        7.07621352756708       29.64686017870715
N           24.50000000000000        3.08100000000000       36.03900000000000
C           25.77900000000000        3.37400000000000       35.41100000000000
C           26.34800000000000        4.61500000000000       36.07599999999999
O           25.64743560993099        5.60942797310041       36.22161561774939
C           25.62222490393385        3.60245724600149       33.90058265745508
C           26.92780560212192        3.76763084384706       33.18737534818202
C           27.62178177689265        2.79499417141375       32.52864007612934
C           27.69852020878344        4.97955754916269       33.05073698407001
N           28.77221772117086        3.31596523386811       31.99123181828760
C           28.83985494272441        4.65092419384939       32.29707401798968
C           27.52633480965639        6.29417651634192       33.49255269354727
C           29.80434107469834        5.59908138132139       31.98050962572085
C           28.48899965990764        7.23934180268883       33.17585926790034
C           29.60574726617817        6.89695615501573       32.43325264613270
H           23.89634455099158        3.80502624455308       36.00502079774134
H           26.44117541419450        2.51928853774859       35.56201588972609
H           25.09119746564397        2.75210770325456       33.46649097286305
H           25.01801906396581        4.49331093374637       33.73325583986477
H           27.31656560918871        1.75941971904971       32.43420483240829
H           29.45706867500675        2.80426420086379       31.45749353693915
H           26.65423906481832        6.56946197361449       34.07522622755447
H           30.68554041988807        5.34590518791349       31.39944665622122
H           28.35265180259087        8.26007748667496       33.52233858382402
H           30.33981484799090        7.66454074741854       32.20350477509174
N           26.13100000000000       -2.77200000000000       28.87400000000000
C           26.24300000000000       -1.32200000000000       28.86800000000000
C           26.66700000000000       -0.80200000000000       30.23200000000000
O           27.37686243962506        0.19431532254888       30.32831023147083
C           24.90806901578138       -0.67108247615222       28.45582227716189
C           24.62357985199021       -0.93060822966528       26.97489959652300
C           24.93747440994645        0.82202493535801       28.74575005070183
C           23.24031507368931       -0.48948133458114       26.54066615663235
H           25.27678905782927       -3.09043597989453       29.11045431780212
H           27.00635979951728       -1.03803125502993       28.14201573621738
H           24.09391491040538       -1.12314810675587       29.02709306925818
H           25.35860992720122       -0.40532731725652       26.36772984682969
H           24.72263395315996       -1.99627366700637       26.76899431394819
H           23.99139433332325        1.27165259596480       28.45338739073017
H           25.09808840196494        0.99031956857927       29.80847829746673
H           25.74570946809758        1.28662793783474       28.18293669381488
H           23.10901016659979       -0.70514501844961       25.48118796947844
H           22.48561138604840       -1.02585188325572       27.11403799616238
H           23.12615770283547        0.57921723777544       26.70542154119604
N           20.46200000000000       -4.78800000000000       29.52199999999999
C           20.46900000000000       -3.43400000000000       30.06100000000000
C           19.08100000000000       -2.80900000000000       30.14600000000000
O           18.78916258500385       -2.10888614390133       31.10842723350034
C           21.37496972467263       -2.53409797229352       29.21073660752264
C           21.44988588478443       -1.12560812825385       29.70741394207296
N           22.02520068309433       -0.79576919889417       30.91100596687626
C           21.03330946965749        0.05362454860202       29.16282221705028
C           21.94602575097585        0.52842333482047       31.07359142232512
N           21.35539306780835        1.07867228766501       30.02535175498593
H           21.09487704380591       -4.94030569344268       28.84272515039084
H           20.85627865494934       -3.45041140614697       31.08265415208351
H           22.38459284529058       -2.95062395535396       29.19585162419134
H           21.00682818143444       -2.51729866522559       28.18446309178897
H           22.49544437261073       -1.41901348686111       31.53981937198624
H           20.53188951587055        0.27331271846866       28.22583022144140
H           22.34585179481809        0.98901242636496       31.97268125603786
C           25.41741274180520        4.48884688511482       27.60333302664832
C           24.11926926118581        4.72686085080865       28.00389838128118
C           23.71874426314125        4.39961433263977       29.29826704622412
C           24.63075589279090        3.83791255301923       30.19110206954098
C           25.92706138801578        3.59311620246043       29.78774870869213
C           26.32704736028353        3.91393647436786       28.49249678890297
C           27.71933580807179        3.65335574927312       28.05036382497014
C           22.32537596939639        4.66503960901022       29.73643001220803
O           28.20900053698593        4.30090562195495       27.15765238067922
O           28.43908968171113        2.69190204742445       28.65920012922589
O           21.31728230419997        3.95255690505344       29.19949055580346
O           22.10707770873625        5.49894108458559       30.58601990345874
H           25.72652483062756        4.73611448475846       26.59890512794695
H           23.41391264036283        5.16917751565963       27.31686931299159
H           24.32314143009442        3.58614633827290       31.19523054360170
H           26.63251015340991        3.15285005124954       30.47711058243103
H           27.94680519026683        1.96753651314209       29.07543814331806
H           21.26594290976245        3.01352517644801       29.39832011683817
C           19.20300906838515        7.76568410863739       30.32305502071885
O           18.45000669367437        8.57241335692124       29.79892239484103
C           18.84335154548344        7.00092332230843       31.48691626418360
H           17.92238734980649        7.40580489386092       31.89496877526640
H           18.69958460849733        5.96355184135976       31.19454555977972
H           19.64356023113440        7.07186986772016       32.21937824467569
C           18.67829971843876        3.99715684345800       34.65066629155974
O           18.71948086448486        5.12919658093698       34.18884458983534
C           17.48864564865296        3.49289813214395       35.28149055065830
H           16.74838133328784        4.28716118217249       35.29642896883830
H           17.11684410326943        2.64478659312458       34.70898801435570
H           17.72942305302796        3.18038576833968       36.29463670760894
C           24.21662338721195        1.90679235778964       36.61289645340589
O           24.97824383613489        0.94916553714383       36.61152597296043
C           22.92544141290792        1.85757773112001       37.24327996534479
H           22.15716070710679        2.01640817445272       36.49001626541059
H           22.80500047705001        0.88228637001552       37.70610991700973
H           22.87150604566249        2.64118109384875       37.99459672041055
C           27.16698332703501       -3.55546021803659       28.56620444509644
O           28.28701263289965       -3.12938361064400       28.33415879129356
C           26.90225756164721       -4.96838940995864       28.56129882068968
H           26.84715460095154       -5.31674380104876       29.59105305514527
H           25.96145156356792       -5.15999359140298       28.05165264971365
H           27.72000349685747       -5.46194302778602       28.04558097972433
C           19.60185818037307       -5.70326366620789       29.99021749893075
O           18.72643673100681       -5.44948284549147       30.80049650487098
C           19.79985910522500       -7.02044687837674       29.45091438854018
H           20.22374590711565       -7.65043539511253       30.22985257607401
H           18.83575324083405       -7.41397232249859       29.14226044883451
H           20.47718756652307       -6.96732988787099       28.60301356675608
N           20.00632010725054        9.06922242958838       26.76657130059161
H           20.26659015738079        9.94979315518206       27.00236795414037
C           19.26539461904886        9.00948526156111       25.56972479580352
H           18.20408119107600        9.09100362669770       25.80021242132155
H           19.46999260035988        8.05924835543957       25.08447911241484
H           19.56545824311989        9.83090458282837       24.91928344559223
N           20.37143109168574        7.20422505006606       35.12392941972087
H           19.96794467751756        6.74596631811289       34.39610580287131
C           19.45605048170306        7.63071419390381       36.10502646055743
H           19.95060895810452        8.36067827025171       36.73860889703047
H           19.13976630897191        6.77316438429132       36.69920400618636
H           18.58952733671273        8.07812607263356       35.62046266696631
N           27.60755305850424        4.57344327669985       36.46446074156269
H           28.14188604289062        3.79103995547439       36.42188985648478
C           28.28006114842948        5.69998068780810       36.97773453453466
H           28.82189138076032        6.19039552268662       36.16922013331745
H           28.97670421933010        5.38347769448837       37.75204769059732
H           27.54209512333844        6.37803069486145       37.39638392138599
N           26.20563743657337       -1.44437508924545       31.28836580336011
H           25.61870896432212       -2.18462000963887       31.21329594653448
C           26.51223714454490       -1.12872817495736       32.62771319788725
H           27.56430004344388       -0.86603522120580       32.69233703179306
H           26.30535615760965       -1.99283265414659       33.25740420743114
H           25.89655458923334       -0.28915320757865       32.94769111548259
N           18.23324070217431       -3.00070747829462       29.15496738950955
H           18.37084973251545       -3.63185230848069       28.46194058703071
C           17.01755661317640       -2.29255697184182       29.06204008708793
H           16.65280944806991       -2.34069958198022       28.03722699829713
H           17.20029439661237       -1.25844533630598       29.34424651487342
H           16.28801419285429       -2.73562881187621       29.73747331134508
185
 energy: -287.116856355729 gnorm: 0.131781860063 xtb: 6.6.1 (8d0f1dd)
N           20.44800000000000        7.52500000000000       29.90600000000000
C           21.05500000000000        8.26300000000000       28.80300000000000
C           20.30000000000000        8.01200000000000       27.50200000000000
O           19.98521119199135        6.88117109354942       27.16820990754155
C           22.52595301524105        7.86228717849649       28.63541718802730
C           23.28987301222442        8.78364364339555       27.72732915386504
C           23.72147122570144       10.02456247376000       28.18056348976235
C           23.59294939473920        8.40333240318601       26.42646451485633
C           24.43911363241321       10.86611142301359       27.34924473399475
C           24.30859992469119        9.24391009118939       25.59272032889488
C           24.73280067822398       10.47825677792990       26.05312868635479