89
 energy: -142.753582038133 gnorm: 0.253317244488 xtb: 6.6.1 (8d0f1dd)
N           20.38900000000000        7.39700000000000       29.85800000000000
C           20.97000000000000        8.08700000000000       28.73900000000000
C           20.10000000000000        7.86800000000000       27.54100000000000
O           20.32900000000000        7.02500000000000       26.69100000000000
C           22.39100000000000        7.59300000000000       28.45900000000000
C           23.15200000000000        8.45400000000000       27.49200000000000
C           23.60900000000000        9.70800000000000       27.86799999999999
C           23.41200000000000        8.01100000000000       26.20300000000000
C           24.30900000000000       10.50100000000000       26.97800000000000
C           24.11300000000000        8.80100000000000       25.31300000000000
C           24.56200000000000       10.04700000000000       25.70100000000000
H           20.77400000000000        6.49200000000000       30.08900000000000
H           20.98500000000000        9.15800000000000       28.98200000000000
H           22.95200000000000        7.55200000000000       29.39200000000000
H           22.35100000000000        6.58200000000000       28.05700000000000
H           23.41000000000000       10.06600000000000       28.87800000000000
H           23.05700000000000        7.02700000000000       25.89700000000000
H           24.66200000000000       11.48400000000000       27.28700000000000
H           24.31100000000000        8.44100000000000       24.30300000000000
H           25.11300000000000       10.67200000000000       24.99900000000000
N           19.68800000000000        3.07300000000000       34.72600000000000
C           20.88200000000000        3.35000000000000       33.97300000000000
C           21.56100000000000        4.53700000000000       34.58100000000000
O           21.78200000000000        4.57700000000000       35.77600000000000
C           20.52000000000000        3.43000000000000       32.49100000000000
H           19.70400000000000        2.30200000000000       35.37500000000000
H           21.55500000000000        2.49800000000000       34.12700000000000
H           21.40600000000000        3.51300000000000       31.87200000000000
H           19.98900000000000        2.52200000000000       32.20400000000000
H           19.85800000000000        4.27200000000000       32.30700000000000
N           21.87800000000000        5.53500000000000       33.73900000000000
C           22.52500000000000        6.72300000000000       34.20999999999999
C           21.62900000000000        7.34000000000000       35.24100000000000
O           22.10700000000000        8.04800000000000       36.11200000000000
C           22.80800000000000        7.69300000000000       33.06400000000000
C           24.02100000000000        7.33200000000000       32.21800000000000
S           24.55900000000000        8.68900000000000       31.15900000000000
C           25.77600000000000        7.86100000000000       30.14000000000000
H           21.73800000000000        5.42900000000000       32.74400000000000
H           23.45300000000000        6.45700000000000       34.73300000000000
H           21.94300000000000        7.73800000000000       32.40400000000000
H           22.96600000000000        8.69400000000000       33.46600000000000
H           24.84900000000000        7.05500000000000       32.87000000000000
H           23.78300000000000        6.47600000000000       31.58700000000000
H           26.20100000000000        8.57200000000000       29.43100000000000
H           26.56900000000000        7.46100000000000       30.77300000000000
H           25.30099999999999        7.04500000000000       29.59500000000000
C           24.98900000000000        4.23400000000000       27.06700000000000
C           23.74200000000000        4.25000000000000       27.66100000000000
C           23.63000000000000        4.32900000000000       29.04700000000000
C           22.27600000000000        4.42000000000000       29.66300000000000
O           22.00700000000000        5.19800000000000       30.54900000000000
O           21.35600000000000        3.59600000000000       29.18300000000000
C           24.77400000000000        4.36800000000000       29.83900000000000
C           26.02000000000000        4.32800000000000       29.24800000000000
C           26.13300000000000        4.27100000000000       27.86000000000000
C           27.49200000000000        4.25600000000000       27.26599999999999
O           28.51300000000000        4.27200000000000       27.90600000000000
O           27.48600000000000        4.22400000000000       25.92700000000000
H           25.08500000000000        4.19400000000000       25.99400000000000
H           22.85000000000000        4.23300000000000       27.05100000000000
H           21.67800000000000        2.97700000000000       28.48900000000000
H           24.67700000000000        4.41100000000000       30.91400000000000
H           26.92100000000000        4.34700000000000       29.83900000000000
H           28.39500000000000        4.21800000000000       25.59500000000000
C           19.17900000000000        7.68800000000000       30.38100000000000
O           18.41000000000000        8.50100000000000       29.86900000000000
C           18.84900000000000        6.96000000000000       31.53000000000000
H           17.91900000000000        7.34500000000000       31.95100000000000
H           18.72200000000000        5.90800000000000       31.27100000000000
H           19.64800000000000        7.05800000000000       32.26500000000000
C           18.64200000000000        3.93100000000000       34.67400000000000
O           18.72600000000000        5.03900000000000       34.14300000000000
C           17.46200000000000        3.52600000000000       35.31000000000000
H           16.68900000000000        4.27900000000000       35.15500000000000
H           17.13100000000000        2.57500000000000       34.89200000000000
H           17.64600000000000        3.40900000000000       36.37800000000000
N           19.84000000000000        8.95800000000000       26.78700000000000
H           20.21300000000000        9.83900000000000       27.11400000000000
C           19.09700000000000        8.93000000000000       25.60100000000000
H           18.03300000000000        8.96000000000000       25.83700000000000
H           19.32200000000000        8.01500000000000       25.05200000000000
H           19.35800000000000        9.79200000000000       24.98699999999999
N           20.30500000000000        7.11800000000000       35.12600000000000
H           19.96000000000000        6.60600000000000       34.32800000000000
C           19.39700000000000        7.58200000000000       36.08500000000000
H           19.86400000000000        8.36700000000000       36.67900000000000
H           19.10300000000000        6.75900000000000       36.73600000000000
H           18.51300000000000        7.98100000000000       35.58700000000000
89
 energy: -142.806300044090 gnorm: 0.156107502948 xtb: 6.6.1 (8d0f1dd)
N           20.38900000000000        7.39700000000000       29.85800000000000
C           20.97000000000000        8.08700000000000       28.73900000000000
C           20.10000000000000        7.86800000000000       27.54100000000000
O           20.22332307275246        6.85693967478298       26.79498584131674
C           22.39225472351787        7.58913004788849       28.45991031312400
C           23.14716353570691        8.45536357749843       27.49034532432227
C           23.60582893201758        9.71059336938193       27.87021665284551
C           23.41499359393990        8.00743219289289       26.20342656115301
C           24.31265401581678       10.50161600487730       26.98183410060078
C           24.11836152763082        8.79796660918371       25.31282496958245
C           24.56820990699702       10.04721962934349       25.70090920547161
H           20.78177728589154        6.50054294424021       30.10668148977533
H           20.98817392278003        9.15942048937383       28.97574594489232
H           22.93966307188794        7.55949545850546       29.40266323220025
H           22.34042278090383        6.57852116293571       28.05527000810626
H           23.41489769772362       10.06445476210434       28.87746353465673
H           23.05790439334163        7.03045532664774       25.89721280265793
H           24.66537658423335       11.47918051733360       27.29067913738861
H           24.31581847617227        8.43928816073782       24.30832399871976
H           25.11869726234506       10.66858205748679       25.00293402894362
N           19.68800000000000        3.07300000000000       34.72600000000000
C           20.88200000000000        3.35000000000000       33.97300000000000
C           21.56100000000000        4.53700000000000       34.58100000000000
O           21.78342004172458        4.57524417374967       35.77523465057159
C           20.51798164498819        3.42481743132314       32.49131240022443
H           19.68963131071154        2.30340644170290       35.37370242876052
H           21.55436760905845        2.49597096316845       34.12578886354603
H           21.40566768542688        3.50536306610488       31.87749476829126
H           19.98716633384607        2.51804348743344       32.20473358354120
H           19.86056246217727        4.26950855467065       32.30577453249008
N           21.87800000000000        5.53500000000000       33.73900000000000
C           22.52500000000000        6.72300000000000       34.20999999999999
C           21.62900000000000        7.34000000000000       35.24100000000000
O           22.10093929995640        8.04814797018521       36.11473947540424
C           22.80544154319110        7.69910911191825       33.06275603467597
C           24.02344718010607        7.31739267179820       32.22635965624234
S           24.54691322755428        8.69609012108112       31.16428202514927
C           25.77565372956812        7.85248177390361       30.14922453765069
H           21.73497008933176        5.43060276102479       32.74528470893041
H           23.45491091966875        6.46054812637467       34.73221855038456
H           21.93528580327357        7.74654458239492       32.40639743227882
H           22.96503972269509        8.69520860778622       33.47790917123876
H           24.85889211092961        7.05251008921744       32.87612956998985
H           23.78514857876861        6.46937712928291       31.58373903941664
H           26.19140005964923        8.57146667975484       29.44625922340566
H           26.57242785707903        7.45872313598233       30.77874231236526
H           25.30514213760959        7.04184003112030       29.59454360037324
C           24.98900000000000        4.23400000000000       27.06700000000000
C           23.74200000000000        4.25000000000000       27.66100000000000
C           23.63000000000000        4.32900000000000       29.04700000000000
C           22.27600000000000        4.42000000000000       29.66300000000000
O           22.00700000000000        5.19800000000000       30.54900000000000
O           21.35600000000000        3.59600000000000       29.18300000000000
C           24.77400000000000        4.36800000000000       29.83900000000000
C           26.02000000000000        4.32800000000000       29.24800000000000
C           26.13300000000000        4.27100000000000       27.86000000000000
C           27.49200000000000        4.25600000000000       27.26599999999999
O           28.51300000000000        4.27200000000000       27.90600000000000
O           27.48600000000000        4.22400000000000       25.92700000000000
H           25.08614631829083        4.19297985079666       25.99450376355242
H           22.85185420385558        4.23618926908578       27.04760400412281
H           21.67737580647808        2.98958676595348       28.49029669554910
H           24.67666750092296        4.41073210685720       30.91408568072114
H           26.92029420144846        4.34551057711936       29.84250157100907
H           28.39712542864788        4.21646651634787       25.59651557421441
C           19.16819312298043        7.69844895001895       30.35152837033663
O           18.43109677401914        8.53156584886304       29.84297924209664
C           18.83080506168568        6.94804724832529       31.55157428760558
H           17.90521744431078        7.33376708613571       31.96942132051444
H           18.70687961703122        5.89692721070879       31.29488739553534
H           19.63384167722181        7.04217791907155       32.28137750001998
C           18.65972024097129        3.95122965910201       34.68092492081274
O           18.74673793501876        5.03274710426056       34.11059623162451
C           17.42962470704676        3.51944477034745       35.32586904915625
H           16.66329107670907        4.27392762798903       35.16271931456050
H           17.10551691711556        2.56699913769522       34.90725757201452
H           17.61022562658095        3.40123526974569       36.39264318163394
N           19.81229164474401        8.99165192500024       26.81449486019523
H           20.16318378511954        9.87887946959433       27.14306644498225
C           19.08443857960219        8.94669910923098       25.59638941544661
H           18.01470474029173        8.96699339263056       25.81094782394604
H           19.32519859820651        8.02840253123233       25.05496625807268
H           19.35650902774546        9.80134732077605       24.98108346723274
N           20.31039670426439        7.12869038232487       35.11200040153386
H           19.95887448420265        6.58973854606245       34.33369186151643
C           19.38315342746318        7.58759630748899       36.08563881993589
H           19.85722103025222        8.36801570737394       36.68048728141409
H           19.08786590509407        6.76608907451349       36.74236724842382
H           18.49824269315550        7.98692144017130       35.59018385553199
89
 energy: -142.825244939541 gnorm: 0.125449238190 xtb: 6.6.1 (8d0f1dd)
N           20.38900000000000        7.39700000000000       29.85800000000000
C           20.97000000000000        8.08700000000000       28.73900000000000
C           20.10000000000000        7.86800000000000       27.54100000000000
O           20.11194024110634        6.77641022918691       26.89006978317918
C           22.39321430120702        7.58804235297076       28.46148838185231
C           23.14485642600544        8.45527505793357       27.49023684501276
C           23.60454162404235        9.71078995391915       27.87223519227392
C           23.41507465225913        8.00542183838743       26.20423569753132
C           24.31535242402053       10.49970030017239       26.98476622946229
C           24.12286452120427        8.79459856161225       25.31425305078891
C           24.57466959568721       10.04457068163406       25.70240445064660
H           20.79541920553022        6.51397742502589       30.13274884803356
H           20.99034313416692        9.15890316595799       28.97836739940683
H           22.92618928295686        7.56665539435984       29.41310599927584
H           22.32658199898746        6.57781396557171       28.05692423771823
H           23.41881903989540       10.06306744150598       28.87789221378842
H           23.05856343945721        7.03142215910643       25.89750096050655
H           24.67105666037596       11.47288998372397       27.29491324419442
H           24.32383209858287        8.43430289339761       24.31410945273747
H           25.12837842456648       10.66221701473716       25.00781852091558
N           19.68800000000000        3.07300000000000       34.72600000000000
C           20.88200000000000        3.35000000000000       33.97300000000000
C           21.56100000000000        4.53700000000000       34.58100000000000
O           21.78624608133138        4.57323313978594       35.77473206802064
C           20.52040977428743        3.41490946976343       32.49059423254135
H           19.67450115768873        2.30400387404358       35.37314114506331
H           21.55484240537939        2.49553978141316       34.12761346609544
H           21.41195680714388        3.48796823545094       31.88291643843455
H           19.98723609673545        2.50868800004571       32.20944108344233
H           19.86890941686629        4.26186504067028       32.29744931754620
N           21.87800000000000        5.53500000000000       33.73900000000000
C           22.52500000000000        6.72300000000000       34.20999999999999
C           21.62900000000000        7.34000000000000       35.24100000000000
O           22.09756806472320        8.04735911434532       36.11712252593514
C           22.80421716677255        7.70407131897867       33.06566072539430
C           24.02202487652067        7.30522791494201       32.23732943200783
S           24.53635685388224        8.69566277481972       31.16710483290158
C           25.77833745270147        7.84470296596563       30.15681242308122
H           21.72966629160317        5.43335777751348       32.74620049315964
H           23.45852166843929        6.46563383829392       34.72873361750990
H           21.93088640253060        7.76060724932489       32.41277591339045
H           22.97045021323860        8.69385665622288       33.49402944175410
H           24.86528804339419        7.05309924888808       32.88245750448159
H           23.78635323733412        6.46325355425139       31.58654511267340
H           26.18459231263865        8.57446401032845       29.46169978948446
H           26.57334438405779        7.45786231680045       30.79041770178351
H           25.31040738460261        7.03757136658340       29.59695939841966
C           24.98900000000000        4.23400000000000       27.06700000000000
C           23.74200000000000        4.25000000000000       27.66100000000000
C           23.63000000000000        4.32900000000000       29.04700000000000
C           22.27600000000000        4.42000000000000       29.66300000000000
O           22.00700000000000        5.19800000000000       30.54900000000000
O           21.35600000000000        3.59600000000000       29.18300000000000
C           24.77400000000000        4.36800000000000       29.83900000000000
C           26.02000000000000        4.32800000000000       29.24800000000000
C           26.13300000000000        4.27100000000000       27.86000000000000
C           27.49200000000000        4.25600000000000       27.26599999999999
O           28.51300000000000        4.27200000000000       27.90600000000000
O           27.48600000000000        4.22400000000000       25.92700000000000
H           25.08686819936201        4.19158095592646       25.99466369568212
H           22.85398127441740        4.24077737723663       27.04380560211897
H           21.67633025787463        3.00622273014500       28.48335974407328
H           24.67645814678783        4.41076676154536       30.91393824392046
H           26.91987060039729        4.34453899873543       29.84344852521939
H           28.39839215887423        4.21430979264604       25.59764799047187
C           19.15996881073990        7.71192004115487       30.32773545005332
O           18.45557424116098        8.56476623473795       29.82180428958043
C           18.80832670167521        6.94155279575562       31.56078843271645
H           17.88579277003880        7.32574921903184       31.98148058637606
H           18.68290234895743        5.89071014873753       31.30975771067131
H           19.61039821964348        7.03200631994538       32.28979192839183
C           18.66790686684702        3.96163649025282       34.68370915409819
O           18.75598747675575        5.02284451910130       34.08978172025219
C           17.40493347436727        3.51459746501915       35.34503189210588
H           16.64005383513156        4.26799112658300       35.17708050953105
H           17.08229357348939        2.56412841065139       34.92475306485746
H           17.57624313792618        3.39445483155005       36.41197722113895
N           19.78084416484502        8.99855373519441       26.85167744721467
H           20.09725392349077        9.89139353741848       27.19524407072587
C           19.07714788709543        8.95112863213345       25.59827240461190
H           17.99915043608675        8.96523050371410       25.77591677363593
H           19.33793562167561        8.02901939596232       25.07328960378648
H           19.36029021592220        9.80390170646037       24.98406884353278
N           20.31120773397523        7.14518582340999       35.09843490817121
H           19.95019099081270        6.56361325889734       34.35180635759893
C           19.36953842223629        7.59829826693416       36.08416926671327
H           19.84947525449105        8.37385903090300       36.67985085743533
H           19.07481428707988        6.77675180045569       36.74232816010282
H           18.48399146789210        7.99604294774405       35.59006263115393
89
 energy: -142.834757428928 gnorm: 0.092470536340 xtb: 6.6.1 (8d0f1dd)
N           20.38900000000000        7.39700000000000       29.85800000000000
C           20.97000000000000        8.08700000000000       28.73900000000000
C           20.10000000000000        7.86800000000000       27.54100000000000
O           20.06169693763175        6.76658295651966       26.96303116601669
C           22.39286856589259        7.58700655488264       28.46251649756808
C           23.14410420916798        8.45211658165130       27.49054228144476
C           23.60463739998080        9.70754921568033       27.87277752379465
C           23.41587004668861        8.00094778542020       26.20555822651552
C           24.31930071075579       10.49353350758988       26.98621309229435
C           24.12931756947370        8.78719767592661       25.31690235234796
C           24.58299287342377       10.03665148894650       25.70465076588040
H           20.81101445192147        6.53031655563640       30.16269937379511
H           20.99007087444485        9.15790309367299       28.98389951597145
H           22.91624275691620        7.57089231986814       29.41920674249828
H           22.31634532835989        6.57602864476230       28.06137141277947
H           23.42077325981793       10.06056541671354       28.87775816259138
H           23.05990992693015        7.02751627343058       25.89767930568023
H           24.67762009563350       11.46487218202713       27.29738785391802
H           24.33504758211667        8.42348609020238       24.31949477026374
H           25.14234871310917       10.65078037488036       25.01238422220993
N           19.68800000000000        3.07300000000000       34.72600000000000
C           20.88200000000000        3.35000000000000       33.97300000000000
C           21.56100000000000        4.53700000000000       34.58100000000000
O           21.78820557093789        4.57253002155623       35.77450960883280
C           20.52775153695839        3.40157800071829       32.48884964256716
H           19.66204172370323        2.30436901400340       35.37319612963988
H           21.55598955827271        2.49693197671927       34.13417895856576
H           21.42519533006589        3.46102265251371       31.88821667612974
H           19.99085736953872        2.49482571930181       32.21724079739682
H           19.88339877443998        4.25029746425957       32.28047978966909
N           21.87800000000000        5.53500000000000       33.73900000000000
C           22.52500000000000        6.72300000000000       34.20999999999999
C           21.62900000000000        7.34000000000000       35.24100000000000
O           22.09548509990466        8.04701817760681       36.11832762205358
C           22.80417766780636        7.70938130551209       33.07193561330182
C           24.01789957537073        7.30018184311466       32.24737607832405
S           24.52556568203194        8.69397010289896       31.16690470964257
C           25.78157428834852        7.84071963081458       30.16549931053068
H           21.72250772631328        5.43705594027954       32.74687855270263
H           23.46152175611157        6.47021160376324       34.72554934732251
H           21.92891325197079        7.78010668165158       32.42260213354484
H           22.98025210593726        8.69264873725717       33.51194605894099
H           24.86678297374710        7.05888690827510       32.88890233189918
H           23.78507179890650        6.45879298678359       31.59596244791948
H           26.18250287067551        8.57865267910144       29.47743855850302
H           26.57208064398492        7.46080101553648       30.80756455635380
H           25.31884960576696        7.03349941565174       29.60287714181747
C           24.98900000000000        4.23400000000000       27.06700000000000
C           23.74200000000000        4.25000000000000       27.66100000000000
C           23.63000000000000        4.32900000000000       29.04700000000000
C           22.27600000000000        4.42000000000000       29.66300000000000
O           22.00700000000000        5.19800000000000       30.54900000000000
O           21.35600000000000        3.59600000000000       29.18300000000000
C           24.77400000000000        4.36800000000000       29.83900000000000
C           26.02000000000000        4.32800000000000       29.24800000000000
C           26.13300000000000        4.27100000000000       27.86000000000000
C           27.49200000000000        4.25600000000000       27.26599999999999
O           28.51300000000000        4.27200000000000       27.90600000000000
O           27.48600000000000        4.22400000000000       25.92700000000000
H           25.08762347422136        4.18954421080518       25.99481339054392
H           22.85597728611726        4.24341010276616       27.04078437864251
H           21.67503342514317        3.02427399115351       28.46953562189308
H           24.67650004091869        4.41177686785807       30.91384518902466
H           26.91931030737429        4.34519555457993       29.84445371004174
H           28.39908444764722        4.21202613065323       25.59884908998430
C           19.15643972052423        7.72727016413227       30.31156679072001
O           18.48163700080820        8.59953791152702       29.80608584735234
C           18.78146832141189        6.93858639377532       31.55852831030424
H           17.85897890250631        7.32254999522459       31.97985569090319
H           18.65101564765042        5.88857763593597       31.30919274048533
H           19.57763174825514        7.02423806660041       32.29346708147017
C           18.66846377575927        3.96395788290957       34.68492140877112
O           18.75343331373693        5.01259104437030       34.07576792564149
C           17.38808408612296        3.51152207797025       35.36728432013576
H           16.62166852191352        4.26311522607516       35.19697098817216
H           17.06256871613244        2.56251352603036       34.94758696729871
H           17.55099574217277        3.39212045040400       36.43508926834033
N           19.72690225744622        9.00337068640567       26.89917455555149
H           19.98079765093246        9.90767422674560       27.27596756715597
C           19.06466008636016        8.95527196670610       25.60841103295980
H           17.97771999346404        8.95651048763533       25.73740050838871
H           19.35756981020675        8.03328953946499       25.10042202017611
H           19.36256579899860        9.81047481139520       25.00334684589420
N           20.30835135634851        7.16483070592666       35.08513901335495
H           19.93894403692805        6.53534176354600       34.37701133530791
C           19.35786191143722        7.61537832832285       36.07738474814077
H           19.83935499296111        8.38833048943307       36.67405368362246
H           19.06185886381597        6.79344986340997       36.73420904383879
H           18.47312809205985        8.01176277264485       35.58158938823231
89
 energy: -142.839597067112 gnorm: 0.078564832926 xtb: 6.6.1 (8d0f1dd)
N           20.38900000000000        7.39700000000000       29.85800000000000
C           20.97000000000000        8.08700000000000       28.73900000000000
C           20.10000000000000        7.86800000000000       27.54100000000000
O           19.98746093653311        6.74989626963816       27.02846534219596
C           22.39078797888300        7.58286921686148       28.46450961451728
C           23.14517837564129        8.44609409012001       27.49434198052787
C           23.60776374487489        9.70054093469017       27.87722817455009
C           23.41825825170913        7.99635453040563       26.20960564201721
C           24.32707695944085       10.48450837329610       26.99310546894027
C           24.13888087961830        8.77968433096614       25.32420048314202
C           24.59546541584517       10.02682276891363       25.71343606677753
H           20.82344690308550        6.54643291878824       30.18923782585313
H           21.00055789664048        9.15752614184827       28.98793290547846
H           22.91298964982305        7.56720650162298       29.42106006277479
H           22.31079802328383        6.57135281379938       28.06648199958274
H           23.42087260648995       10.05553608925203       28.88178487492818
H           23.06117968482097        7.02308852235628       25.89871296189556
H           24.68706705050624       11.45571743440509       27.30592660312787
H           24.34916351474269        8.41359780254140       24.32754186961398
H           25.16195135767091       10.63870356694436       25.02361719237699
N           19.68799999999999        3.07300000000000       34.72600000000000
C           20.88200000000000        3.35000000000000       33.97300000000000
C           21.56100000000000        4.53700000000000       34.58100000000000