      -----------------------------------------------------------      
     |                   =====================                   |     
     |                           x T B                           |     
     |                   =====================                   |     
     |                         S. Grimme                         |     
     |          Mulliken Center for Theoretical Chemistry        |     
     |                    University of Bonn                     |     
      -----------------------------------------------------------      

   * xtb version 6.6.1 (8d0f1dd) compiled by 'stahn@M-Bot' on 2023-08-01

   xtb is free software: you can redistribute it and/or modify it under
   the terms of the GNU Lesser General Public License as published by
   the Free Software Foundation, either version 3 of the License, or
   (at your option) any later version.
   
   xtb is distributed in the hope that it will be useful,
   but WITHOUT ANY WARRANTY; without even the implied warranty of
   MERCHANTABILITY or FITNESS FOR A PARTICULAR PURPOSE.  See the
   GNU Lesser General Public License for more details.
   
   Cite this work as:
   * C. Bannwarth, E. Caldeweyher, S. Ehlert, A. Hansen, P. Pracht,
     J. Seibert, S. Spicher, S. Grimme, WIREs Comput. Mol. Sci., 2020, 11,
     e01493. DOI: 10.1002/wcms.1493
   
   for GFN2-xTB:
   * C. Bannwarth, S. Ehlert and S. Grimme., J. Chem. Theory Comput., 2019,
     15, 1652-1671. DOI: 10.1021/acs.jctc.8b01176
   for GFN1-xTB:
   * S. Grimme, C. Bannwarth, P. Shushkov, J. Chem. Theory Comput., 2017,
     13, 1989-2009. DOI: 10.1021/acs.jctc.7b00118
   for GFN0-xTB:
   * P. Pracht, E. Caldeweyher, S. Ehlert, S. Grimme, ChemRxiv, 2019, preprint.
     DOI: 10.26434/chemrxiv.8326202.v1
   for GFN-FF:
   * S. Spicher and S. Grimme, Angew. Chem. Int. Ed., 2020, 59, 15665-15673.
     DOI: 10.1002/anie.202004239
   
   for ALPB and GBSA implicit solvation:
   * S. Ehlert, M. Stahn, S. Spicher, S. Grimme, J. Chem. Theory Comput.,
     2021, 17, 4250-4261. DOI: 10.1021/acs.jctc.1c00471
   
   for DFT-D4:
   * E. Caldeweyher, C. Bannwarth and S. Grimme, J. Chem. Phys., 2017,
     147, 034112. DOI: 10.1063/1.4993215
   * E. Caldeweyher, S. Ehlert, A. Hansen, H. Neugebauer, S. Spicher,
     C. Bannwarth and S. Grimme, J. Chem. Phys., 2019, 150, 154122.
     DOI: 10.1063/1.5090222
   * E. Caldeweyher, J.-M. Mewes, S. Ehlert and S. Grimme, Phys. Chem. Chem. Phys.
     2020, 22, 8499-8512. DOI: 10.1039/D0CP00502A
   
   for sTDA-xTB:
   * S. Grimme and C. Bannwarth, J. Chem. Phys., 2016, 145, 054103.
     DOI: 10.1063/1.4959605
   
   in the mass-spec context:
   * V. Asgeirsson, C. Bauer and S. Grimme, Chem. Sci., 2017, 8, 4879.
     DOI: 10.1039/c7sc00601b
   * J. Koopman and S. Grimme, ACS Omega 2019, 4, 12, 15120-15133.
     DOI: 10.1021/acsomega.9b02011
   
   for metadynamics refer to:
   * S. Grimme, J. Chem. Theory Comput., 2019, 155, 2847-2862
     DOI: 10.1021/acs.jctc.9b00143
   
   for SPH calculations refer to:
   * S. Spicher and S. Grimme, J. Chem. Theory Comput., 2021, 17, 1701-1714
     DOI: 10.1021/acs.jctc.0c01306
   
   with help from (in alphabetical order)
   P. Atkinson, C. Bannwarth, F. Bohle, G. Brandenburg, E. Caldeweyher
   M. Checinski, S. Dohm, S. Ehlert, S. Ehrlich, I. Gerasimov, C. Hölzer
   A. Katbashev, J. Koopman, C. Lavigne, S. Lehtola, F. März, M. Müller,
   F. Musil, H. Neugebauer, J. Pisarek, C. Plett, P. Pracht, F. Pultar,
   J. Seibert, P. Shushkov, S. Spicher, M. Stahn, M. Steiner, T. Strunk,
   J. Stückrath, T. Rose, and J. Unsleber
   
 * started run on 2024/06/14 at 23:42:58.612     

           -------------------------------------------------
          |                Calculation Setup                |
           -------------------------------------------------

          program call               : /home/jurichc/xtb-6.6.1/bin/xtb --chrg 0 --iterations 1000 --parallel 1 --norestart --sp /panfs/accrepfs.vampire/data/yang_lab/jurichc/enzy_rcd_benchmarking/enzy_rcd_no_qm/8brb/QM_SPE/xtb_coords.mol
          hostname                   : cn1603
          coordinate file            : /panfs/accrepfs.vampire/data/yang_lab/jurichc/enzy_rcd_benchmarking/enzy_rcd_no_qm/8brb/QM_SPE/xtb_coords.mol
          omp threads                :                     1

   ID    Z sym.   atoms
    1    7 N      1, 8, 28, 34, 37, 45, 62, 70, 86, 105, 111, 114, 176, 182,
                  188, 194, 200, 206
    2    6 C      2, 3, 9, 10, 12-18, 29, 30, 32, 33, 35, 36, 46, 47, 49, 50,
                  52, 63, 64, 66-69, 71-75, 87, 88, 90-93, 106, 107, 109,
                  110, 112, 113, 122-125, 128-131, 140, 142, 146, 148, 152,
                  154, 158, 160, 164, 166, 170, 172, 178, 184, 190, 196, 202,
                  208
    3    8 O      4, 11, 31, 48, 65, 89, 108, 126, 127, 132, 133, 141, 147,
                  153, 159, 165, 171
    4    1 H      5-7, 19-27, 38-44, 53-61, 76-85, 94-104, 115-121, 134-139,
                  143-145, 149-151, 155-157, 161-163, 167-169, 173-175, 177,
                  179-181, 183, 185-187, 189, 191-193, 195, 197-199, 201,
                  203-205, 207, 209-211
    5   16 S      51

molecular fragmentation (1/2 indicates fragments):
111111111111111111111111111222222222222222222222222222222222222222222222
222222222222222222222222222222222222222222222222222222222222222222211111
1222222222222222222222222222222111111222222222222222222222222222222
# atoms in fragment 1/2:    39   172
 fragment masses (1/2) :      277.32     1236.44
CMA distance (Bohr)    :  13.898
constraining FC (au)   :  0.0500

           -------------------------------------------------
          |                 G F N 2 - x T B                 |
           -------------------------------------------------

        Reference                      10.1021/acs.jctc.8b01176
      * Hamiltonian:
        H0-scaling (s, p, d)           1.850000    2.230000    2.230000
        zeta-weighting                 0.500000
      * Dispersion:
        s8                             2.700000
        a1                             0.520000
        a2                             5.000000
        s9                             5.000000
      * Repulsion:
        kExp                           1.500000    1.000000
        rExp                           1.000000
      * Coulomb:
        alpha                          2.000000
        third order                    shell-resolved
        anisotropic                    true
        a3                             3.000000
        a5                             4.000000
        cn-shift                       1.200000
        cn-exp                         4.000000
        max-rad                        5.000000


          ...................................................
          :                      SETUP                      :
          :.................................................:
          :  # basis functions                 538          :
          :  # atomic orbitals                 537          :
          :  # shells                          319          :
          :  # electrons                       586          :
          :  max. iterations                  1000          :
          :  Hamiltonian                  GFN2-xTB          :
          :  restarted?                      false          :
          :  GBSA solvation                  false          :
          :  PC potential                    false          :
          :  electronic temp.          300.0000000     K    :
          :  accuracy                    1.0000000          :
          :  -> integral cutoff          0.2500000E+02      :
          :  -> integral neglect         0.1000000E-07      :
          :  -> SCF convergence          0.1000000E-05 Eh   :
          :  -> wf. convergence          0.1000000E-03 e    :
          :  Broyden damping             0.4000000          :
          ...................................................

 iter      E             dE          RMSdq      gap      omega  full diag
   1   -329.0926648 -0.329093E+03  0.442E+00    0.39       0.0  T
   2   -315.2288582  0.138638E+02  0.495E+00    0.06       1.0  T
   3   -320.3735727 -0.514471E+01  0.416E+00    0.25       1.0  T
   4   -331.5859364 -0.112124E+02  0.254E+00    0.19       1.0  T
   5   -332.8914907 -0.130555E+01  0.155E+00    0.67       1.0  T
   6   -332.2398684  0.651622E+00  0.140E+00    0.16       1.0  T
   7   -333.0631216 -0.823253E+00  0.803E-01    0.74       1.0  T
   8   -333.1250153 -0.618936E-01  0.465E-01    0.82       1.0  T
   9   -333.1431864 -0.181711E-01  0.319E-01    0.17       1.0  T
  10   -332.7285426  0.414644E+00  0.901E-01    0.39       1.0  T
  11   -332.7704170 -0.418744E-01  0.851E-01    0.18       1.0  T
  12   -333.1380850 -0.367668E+00  0.254E-01    0.41       1.0  T
  13   -333.1503378 -0.122528E-01  0.186E-01    0.17       1.0  T
  14   -333.1461166  0.422118E-02  0.194E-01    0.20       1.0  T
  15   -333.1673544 -0.212378E-01  0.329E-02    0.08       1.0  T
  16   -333.1669963  0.358116E-03  0.374E-02    0.07       1.0  T
  17   -333.1672667 -0.270460E-03  0.220E-02    0.08       1.0  T
  18   -333.1632177  0.404901E-02  0.843E-02    0.05       1.0  T
  19   -333.1667393 -0.352157E-02  0.358E-02    0.09       1.0  T
  20   -333.1675214 -0.782129E-03  0.103E-02    0.07       1.0  T
  21   -333.1674221  0.992844E-04  0.164E-02    0.07       1.0  T
  22   -333.1674580 -0.359121E-04  0.143E-02    0.07       1.0  T
  23   -333.1675349 -0.768687E-04  0.847E-03    0.07       1.0  T
  24   -333.1675733 -0.383551E-04  0.273E-03    0.07       2.5  T
  25   -333.1675775 -0.419938E-05  0.366E-04    0.07      18.8  T
  26   -333.1675775 -0.508269E-07  0.775E-05    0.07      88.8  T
  27   -333.1675775 -0.190090E-08  0.649E-05    0.07     106.0  T

   *** convergence criteria satisfied after 27 iterations ***

         #    Occupation            Energy/Eh            Energy/eV
      -------------------------------------------------------------
         1        2.0000           -0.9984341             -27.1688
       ...           ...                  ...                  ...
       287        2.0000           -0.3626339              -9.8678
       288        2.0000           -0.3602867              -9.8039
       289        2.0000           -0.3577782              -9.7356
       290        2.0000           -0.3553501              -9.6696
       291        2.0000           -0.3376071              -9.1868
       292        2.0000           -0.3094842              -8.4215
       293        1.6154           -0.2903705              -7.9014 (HOMO)
       294        0.3846           -0.2876435              -7.8272 (LUMO)
       295                         -0.2646710              -7.2021
       296                         -0.2598353              -7.0705
       297                         -0.2568848              -6.9902
       298                         -0.2518493              -6.8532
       ...                                ...                  ...
       537                        165.0878163            4492.2681
      -------------------------------------------------------------
                  HL-Gap            0.0027270 Eh            0.0742 eV
             Fermi-level           -0.2890070 Eh           -7.8643 eV

 SCC (total)                   0 d,  0 h,  0 min,  3.120 sec
 SCC setup                      ...        0 min,  0.004 sec (  0.139%)
 Dispersion                     ...        0 min,  0.010 sec (  0.318%)
 classical contributions        ...        0 min,  0.003 sec (  0.092%)
 integral evaluation            ...        0 min,  0.106 sec (  3.386%)
 iterations                     ...        0 min,  2.498 sec ( 80.055%)
 molecular gradient             ...        0 min,  0.487 sec ( 15.596%)
 printout                       ...        0 min,  0.013 sec (  0.413%)

         :::::::::::::::::::::::::::::::::::::::::::::::::::::
         ::                     SUMMARY                     ::
         :::::::::::::::::::::::::::::::::::::::::::::::::::::
         :: total energy            -279.030311946093 Eh    ::
         :: gradient norm            291.216605703035 Eh/a0 ::
         :: HOMO-LUMO gap              0.074206617274 eV    ::
         ::.................................................::
         :: SCC energy              -333.167577503803 Eh    ::
         :: -> isotropic ES            0.792191094328 Eh    ::
         :: -> anisotropic ES          0.048833629453 Eh    ::
         :: -> anisotropic XC          0.172233384262 Eh    ::
         :: -> dispersion             -0.275766794398 Eh    ::
         :: repulsion energy          54.115847953050 Eh    ::
         :: add. restraining           0.000000000000 Eh    ::
         :: total charge               0.000000000856 e     ::
         :::::::::::::::::::::::::::::::::::::::::::::::::::::

           -------------------------------------------------
          |                Property Printout                |
           -------------------------------------------------

    * Orbital Energies and Occupations

         #    Occupation            Energy/Eh            Energy/eV
      -------------------------------------------------------------
         1        2.0000           -0.9984341             -27.1688
       ...           ...                  ...                  ...
       281        2.0000           -0.3846757             -10.4676
       282        2.0000           -0.3833077             -10.4303
       283        2.0000           -0.3761110             -10.2345
       284        2.0000           -0.3673511              -9.9961
       285        2.0000           -0.3659266              -9.9574
       286        2.0000           -0.3631882              -9.8829
       287        2.0000           -0.3626339              -9.8678
       288        2.0000           -0.3602867              -9.8039
       289        2.0000           -0.3577782              -9.7356
       290        2.0000           -0.3553501              -9.6696
       291        2.0000           -0.3376071              -9.1868
       292        2.0000           -0.3094842              -8.4215
       293        1.6154           -0.2903705              -7.9014 (HOMO)
       294        0.3846           -0.2876435              -7.8272 (LUMO)
       295                         -0.2646710              -7.2021
       296                         -0.2598353              -7.0705
       297                         -0.2568848              -6.9902
       298                         -0.2518493              -6.8532
       299                         -0.2448621              -6.6630
       300                         -0.2389585              -6.5024
       301                         -0.2384489              -6.4885
       302                         -0.2319028              -6.3104
       303                         -0.2281725              -6.2089
       304                         -0.2276561              -6.1948
       ...                                ...                  ...
       537                        165.0878163            4492.2681
      -------------------------------------------------------------
                  HL-Gap            0.0027270 Eh            0.0742 eV
             Fermi-level           -0.2890070 Eh           -7.8643 eV

     #   Z          covCN         q      C6AA      α(0)
     1   7 N        2.708    -0.165    24.573     7.362
     2   6 C        3.750    -0.031    21.187     6.565
     3   6 C        2.751     0.274    22.360     7.743
     4   8 O        0.858    -0.448    22.667     6.383
     5   1 H        0.862     0.195     1.130     1.665
     6   1 H        0.924     0.083     1.948     2.183
     7   1 H        0.925     0.068     2.107     2.270
     8   7 N        2.693    -0.175    24.791     7.395
     9   6 C        3.796     0.027    20.122     6.388
    10   6 C        2.765     0.271    22.428     7.756
    11   8 O        0.858    -0.444    22.580     6.371
    12   6 C        3.814    -0.080    22.021     6.679
    13   6 C        2.970     0.011    27.760     8.642
    14   6 C        2.927    -0.038    28.942     8.822
    15   6 C        2.927    -0.037    28.931     8.821
    16   6 C        2.920    -0.028    28.710     8.787
    17   6 C        2.920    -0.030    28.749     8.793
    18   6 C        2.923    -0.032    28.788     8.799
    19   1 H        0.862     0.204     1.087     1.633
    20   1 H        0.924     0.051     2.310     2.377
    21   1 H        0.925     0.065     2.136     2.286
    22   1 H        0.925     0.056     2.245     2.343
    23   1 H        0.924     0.047     2.356     2.400
    24   1 H        0.925     0.028     2.620     2.531
    25   1 H        0.925     0.032     2.565     2.505
    26   1 H        0.924     0.027     2.629     2.536
    27   1 H        0.925     0.027     2.629     2.535
    28   7 N        2.711    -0.190    25.110     7.442
    29   6 C        3.796     0.018    20.277     6.412
    30   6 C        2.992     0.205    23.662     7.979
    31   8 O        0.858    -0.505    23.896     6.554
    32   6 C        3.809    -0.079    22.005     6.678
    33   6 C        3.088     0.040    27.015     8.520
    34   7 N        1.989    -0.298    28.529     7.921
    35   6 C        3.054    -0.037    28.867     8.811
    36   6 C        3.033     0.083    26.118     8.383
    37   7 N        2.841    -0.085    22.899     7.107
    38   1 H        0.862     0.202     1.096     1.640
    39   1 H        0.925     0.060     2.196     2.317
    40   1 H        0.924     0.062     2.175     2.307
    41   1 H        0.925     0.074     2.047     2.238
    42   1 H        0.924     0.030     2.589     2.516
    43   1 H        0.925     0.052     2.291     2.367
    44   1 H        0.860     0.193     1.140     1.673
    45   7 N        2.769    -0.266    26.888     7.701
    46   6 C        3.801     0.015    20.330     6.420
    47   6 C        2.769     0.262    22.582     7.783
    48   8 O        0.859    -0.433    22.353     6.339
    49   6 C        3.837    -0.068    21.778     6.639
    50   6 C        3.796    -0.012    20.787     6.492
    51  16 S        1.974    -0.214   150.185    20.626
    52   6 C        3.745    -0.050    21.534     6.620
    53   1 H        0.862     0.178     1.225     1.733
    54   1 H        0.925     0.098     1.804     2.101
    55   1 H        0.925     0.034     2.526     2.485
    56   1 H        0.924     0.077     2.014     2.219
    57   1 H        0.925     0.056     2.251     2.346
    58   1 H        0.925     0.036     2.501     2.473
    59   1 H        0.925     0.058     2.226     2.333
    60   1 H        0.925     0.050     2.323     2.384
    61   1 H        0.925     0.065     2.141     2.288
    62   7 N        2.711    -0.201    25.358     7.479
    63   6 C        3.795     0.020    20.236     6.406
    64   6 C        2.773     0.263    22.559     7.779
    65   8 O        0.859    -0.443    22.550     6.367
    66   6 C        3.808    -0.054    21.546     6.608
    67   6 C        3.051    -0.051    29.204     8.863
    68   6 C        3.016    -0.008    28.190     8.709
    69   6 C        3.110    -0.022    28.406     8.732
    70   7 N        2.779    -0.101    23.207     7.155
    71   6 C        3.075     0.053    26.729     8.476
    72   6 C        2.915    -0.045    29.122     8.849
    73   6 C        2.910    -0.046    29.142     8.852
    74   6 C        2.916    -0.039    28.968     8.826
    75   6 C        2.923    -0.032    28.786     8.798
    76   1 H        0.862     0.212     1.047     1.603
    77   1 H        0.925     0.061     2.183     2.310
    78   1 H        0.925     0.017     2.772     2.604
    79   1 H        0.925     0.041     2.431     2.438
    80   1 H        0.925     0.036     2.505     2.475
    81   1 H        0.860     0.169     1.277     1.770
    82   1 H        0.925     0.041     2.436     2.441
    83   1 H        0.924     0.030     2.591     2.517
    84   1 H        0.925     0.023     2.684     2.562
    85   1 H        0.925     0.028     2.621     2.532
    86   7 N        2.704    -0.201    25.374     7.481
    87   6 C        3.802     0.007    20.459     6.440
    88   6 C        2.762     0.261    22.596     7.785
    89   8 O        0.859    -0.434    22.377     6.342
    90   6 C        3.856    -0.020    20.888     6.500
    91   6 C        3.806    -0.056    21.582     6.613
    92   6 C        3.756    -0.116    22.774     6.804
    93   6 C        3.752    -0.111    22.685     6.792
    94   1 H        0.862     0.175     1.244     1.747
    95   1 H        0.925     0.104     1.746     2.067
    96   1 H        0.925     0.010     2.897     2.662
    97   1 H        0.925     0.014     2.823     2.628
    98   1 H        0.925     0.034     2.533     2.489
    99   1 H        0.924     0.055     2.261     2.352
   100   1 H        0.925     0.048     2.346     2.395
   101   1 H        0.925     0.049     2.332     2.388
   102   1 H        0.925     0.039     2.463     2.454
   103   1 H        0.924     0.047     2.352     2.398
   104   1 H        0.925     0.050     2.322     2.383
   105   7 N        2.707    -0.215    25.679     7.526
   106   6 C        3.797     0.023    20.185     6.397
   107   6 C        2.769     0.270    22.444     7.759
   108   8 O        0.859    -0.464    22.998     6.430
   109   6 C        3.809    -0.069    21.805     6.647
   110   6 C        3.088     0.032    27.189     8.547
   111   7 N        2.849    -0.083    22.848     7.099
   112   6 C        3.053     0.010    27.733     8.637
   113   6 C        3.032     0.087    26.032     8.369
   114   7 N        1.980    -0.282    28.133     7.866
   115   1 H        0.862     0.188     1.170     1.694
   116   1 H        0.925     0.073     2.058     2.243
   117   1 H        0.924     0.041     2.429     2.437
   118   1 H        0.925     0.054     2.273     2.358
   119   1 H        0.861     0.169     1.280     1.773
   120   1 H        0.924     0.046     2.373     2.409
   121   1 H        0.925     0.025     2.654     2.548
   122   6 C        2.920    -0.043    29.074     8.842
   123   6 C        2.920    -0.036    28.897     8.815
   124   6 C        2.973    -0.047    29.160     8.858
   125   6 C        2.696     0.338    21.264     7.547
   126   8 O        0.858    -0.459    22.899     6.416
   127   8 O        1.659    -0.393    20.710     6.143
   128   6 C        2.920    -0.032    28.793     8.799
   129   6 C        2.920    -0.025    28.631     8.775
   130   6 C        2.973    -0.039    28.959     8.827
   131   6 C        2.696     0.343    21.179     7.532
   132   8 O        0.858    -0.410    21.887     6.272
   133   8 O        1.659    -0.388    20.618     6.130
   134   1 H        0.926     0.034     2.533     2.489
   135   1 H        0.926     0.024     2.674     2.557
   136   1 H        0.805     0.323     0.655     1.271
   137   1 H        0.926     0.040     2.445     2.445
   138   1 H        0.926     0.069     2.092     2.262
   139   1 H        0.805     0.312     0.685     1.300
   140   6 C        2.756     0.285    22.174     7.711
   141   8 O        0.861    -0.473    23.188     6.456
   142   6 C        3.781    -0.136    23.131     6.851
   143   1 H        0.924     0.082     1.963     2.191
   144   1 H        0.924     0.041     2.437     2.441
   145   1 H        0.925     0.067     2.116     2.275
   146   6 C        2.754     0.283    22.210     7.717
   147   8 O        0.861    -0.474    23.212     6.460
   148   6 C        3.782    -0.142    23.254     6.869
   149   1 H        0.924     0.083     1.953     2.185
   150   1 H        0.925     0.091     1.872     2.140
   151   1 H        0.925     0.047     2.354     2.399
   152   6 C        4.670     0.005    20.400     6.414
   153   8 O        0.866    -0.503    23.838     6.546
   154   6 C        8.425     0.156    18.001     6.026
   155   1 H        2.878     0.119     1.611     1.981
   156   1 H        2.942     0.535     0.292     0.844
   157   1 H        2.726     0.076     2.012     2.214
   158   6 C        2.752     0.277    22.308     7.734
   159   8 O        0.861    -0.482    23.398     6.485
   160   6 C        3.778    -0.140    23.215     6.864
   161   1 H        0.924     0.033     2.546     2.495
   162   1 H        0.925     0.078     1.996     2.210
   163   1 H        0.925     0.086     1.922     2.168
   164   6 C        2.756     0.281    22.248     7.724
   165   8 O        0.863    -0.457    22.861     6.411
   166   6 C        3.775    -0.136    23.142     6.854
   167   1 H        0.924     0.065     2.145     2.291
   168   1 H        0.925     0.048     2.345     2.395
   169   1 H        0.924     0.088     1.902     2.157
   170   6 C        2.756     0.281    22.234     7.722
   171   8 O        0.861    -0.456    22.826     6.406
   172   6 C        3.778    -0.140    23.229     6.866
   173   1 H        0.924     0.092     1.863     2.135
   174   1 H        0.924     0.088     1.896     2.153
   175   1 H        0.924     0.043     2.406     2.426
   176   7 N        2.688    -0.163    24.525     7.355
   177   1 H        0.863     0.190     1.157     1.685
   178   6 C        3.700    -0.040    21.458     6.624
   179   1 H        0.925     0.061     2.184     2.311
   180   1 H        0.925     0.076     2.021     2.223
   181   1 H        0.925     0.045     2.382     2.414
   182   7 N        4.503    -0.444    31.599     8.349
   183   1 H        0.863     0.194     1.139     1.671
   184   6 C        8.431     0.142    18.212     6.061
   185   1 H        2.722     0.032     2.541     2.489
   186   1 H        2.827    -0.046     3.958     3.106
   187   1 H        2.859     0.327     0.629     1.239
   188   7 N        2.687    -0.161    24.479     7.348
   189   1 H        0.862     0.201     1.098     1.642
   190   6 C        3.705    -0.047    21.577     6.640
   191   1 H        0.925     0.083     1.951     2.184
   192   1 H        0.925     0.043     2.403     2.424
   193   1 H        0.925     0.080     1.980     2.201
   194   7 N        2.688    -0.161    24.473     7.347
   195   1 H        0.862     0.191     1.154     1.683
   196   6 C        3.705    -0.046    21.558     6.638
   197   1 H        0.925     0.060     2.205     2.322
   198   1 H        0.925     0.049     2.330     2.387
   199   1 H        0.925     0.090     1.881     2.145
   200   7 N        2.688    -0.174    24.772     7.392
   201   1 H        0.863     0.180     1.215     1.726
   202   6 C        3.697    -0.040    21.462     6.627
   203   1 H        0.925     0.086     1.922     2.168
   204   1 H        0.925     0.052     2.295     2.369
   205   1 H        0.925     0.054     2.265     2.353
   206   7 N        2.688    -0.151    24.268     7.316
   207   1 H        0.862     0.192     1.145     1.676
   208   6 C        3.706    -0.045    21.523     6.632
   209   1 H        0.925     0.057     2.234     2.337
   210   1 H        0.925     0.077     2.013     2.219
   211   1 H        0.924     0.072     2.061     2.245

 Mol. C6AA /au·bohr⁶  :     458253.035399
 Mol. C8AA /au·bohr⁸  :   10553946.541560
 Mol. α(0) /au        :       1033.071813


Wiberg/Mayer (AO) data.
largest (>0.10) Wiberg bond orders for each atom

 ---------------------------------------------------------------------------
     #   Z sym  total        # sym  WBO       # sym  WBO       # sym  WBO
 ---------------------------------------------------------------------------
     1   7 N    3.457 --   140 C    1.256     2 C    1.005     5 H    0.942
                           141 O    0.191
     2   6 C    3.974 --     1 N    1.005     7 H    0.952     3 C    0.951
                             6 H    0.947
     3   6 C    3.955 --     4 O    1.669     8 N    1.272     2 C    0.951
     4   8 O    1.976 --     3 C    1.669     8 N    0.193
     5   1 H    0.962 --     1 N    0.942
     6   1 H    0.993 --     2 C    0.947
     7   1 H    0.995 --     2 C    0.952
     8   7 N    3.450 --     3 C    1.272     9 C    0.975    19 H    0.923
                             4 O    0.193
     9   6 C    3.972 --     8 N    0.975    12 C    0.971    20 H    0.958
                            10 C    0.939
    10   6 C    3.955 --    11 O    1.669   176 N    1.273     9 C    0.939
    11   8 O    1.979 --    10 C    1.669   176 N    0.198
    12   6 C    3.989 --    13 C    1.008     9 C    0.971    22 H    0.965
                            21 H    0.950
    13   6 C    3.988 --    15 C    1.415    14 C    1.412    12 C    1.008
                            18 C    0.109
    14   6 C    3.990 --    16 C    1.444    13 C    1.412    23 H    0.964
                            17 C    0.113
    15   6 C    3.991 --    17 C    1.444    13 C    1.415    24 H    0.968
                            16 C    0.111
    16   6 C    3.992 --    14 C    1.444    18 C    1.440    25 H    0.970
                            15 C    0.111
    17   6 C    3.992 --    15 C    1.444    18 C    1.438    26 H    0.971
                            14 C    0.113
    18   6 C    3.991 --    16 C    1.440    17 C    1.438    27 H    0.971
                            13 C    0.109
    19   1 H    0.958 --     8 N    0.923
    20   1 H    0.997 --     9 C    0.958
    21   1 H    0.995 --    12 C    0.950
    22   1 H    0.997 --    12 C    0.965
    23   1 H    0.998 --    14 C    0.964
    24   1 H    0.999 --    15 C    0.968
    25   1 H    0.999 --    16 C    0.970
    26   1 H    0.999 --    17 C    0.971
    27   1 H    0.999 --    18 C    0.971
    28   7 N    3.427 --   146 C    1.233    29 C    0.983    38 H    0.937
                           147 O    0.184
    29   6 C    3.955 --    28 N    0.983    32 C    0.961    39 H    0.960
                            30 C    0.910
    30   6 C    3.906 --    31 O    1.535   182 N    1.127    29 C    0.910
    31   8 O    1.907 --    30 C    1.535   182 N    0.165
    32   6 C    3.986 --    33 C    1.012    41 H    0.970    29 C    0.961
                            40 H    0.961
    33   6 C    3.976 --    35 C    1.563    34 N    1.275    32 C    1.012
    34   7 N    2.998 --    36 C    1.524    33 C    1.275    37 N    0.102
    35   6 C    3.934 --    33 C    1.563    37 N    1.200    42 H    0.969
                            36 C    0.117
    36   6 C    3.958 --    34 N    1.524    37 N    1.303    43 H    0.962
                            35 C    0.117
    37   7 N    3.608 --    36 C    1.303    35 C    1.200    44 H    0.922
                            34 N    0.102
    38   1 H    0.959 --    28 N    0.937
    39   1 H    0.996 --    29 C    0.960
    40   1 H    0.994 --    32 C    0.961
    41   1 H    0.995 --    32 C    0.970
    42   1 H    0.999 --    35 C    0.969
    43   1 H    0.997 --    36 C    0.962
    44   1 H    0.963 --    37 N    0.922
    45   7 N    3.380 --   152 C    1.172    53 H    0.943    46 C    0.937
                           153 O    0.189
    46   6 C    3.947 --    49 C    0.980    54 H    0.944    45 N    0.937
                            47 C    0.934
    47   6 C    3.963 --    48 O    1.658   188 N    1.293    46 C    0.934
    48   8 O    1.984 --    47 C    1.658   188 N    0.205
    49   6 C    3.988 --    50 C    1.011    46 C    0.980    56 H    0.968
                            55 H    0.966
    50   6 C    3.981 --    49 C    1.011    51 S    0.988    57 H    0.968
                            58 H    0.964
    51  16 S    2.096 --    52 C    1.012    50 C    0.988
    52   6 C    3.972 --    51 S    1.012    59 H    0.979    60 H    0.977
                            61 H    0.975
    53   1 H    0.968 --    45 N    0.943
    54   1 H    0.990 --    46 C    0.944
    55   1 H    0.998 --    49 C    0.966
    56   1 H    0.993 --    49 C    0.968
    57   1 H    0.997 --    50 C    0.968
    58   1 H    0.999 --    50 C    0.964
    59   1 H    0.996 --    52 C    0.979
    60   1 H    0.997 --    52 C    0.977
    61   1 H    0.996 --    52 C    0.975
    62   7 N    3.439 --   158 C    1.255    63 C    0.979    76 H    0.930
                           159 O    0.189
    63   6 C    3.971 --    62 N    0.979    77 H    0.962    66 C    0.961
                            64 C    0.942
    64   6 C    3.957 --    65 O    1.657   194 N    1.284    63 C    0.942
    65   8 O    1.982 --    64 C    1.657   194 N    0.202
    66   6 C    3.994 --    67 C    1.012    78 H    0.973    79 H    0.968
                            63 C    0.961
    67   6 C    3.968 --    68 C    1.594    69 C    1.182    66 C    1.012
    68   6 C    3.954 --    67 C    1.594    70 N    1.204    80 H    0.965
    69   6 C    3.983 --    72 C    1.342    71 C    1.261    67 C    1.182
    70   7 N    3.543 --    68 C    1.204    71 C    1.166    81 H    0.944
    71   6 C    3.960 --    73 C    1.350    69 C    1.261    70 N    1.166
    72   6 C    3.990 --    74 C    1.474    69 C    1.342    82 H    0.962
                            73 C    0.126
    73   6 C    3.988 --    75 C    1.465    71 C    1.350    83 H    0.969
                            72 C    0.126
    74   6 C    3.991 --    72 C    1.474    75 C    1.407    84 H    0.967
    75   6 C    3.991 --    73 C    1.465    74 C    1.407    85 H    0.971
    76   1 H    0.955 --    62 N    0.930
    77   1 H    0.996 --    63 C    0.962
    78   1 H    0.999 --    66 C    0.973
    79   1 H    0.998 --    66 C    0.968
    80   1 H    0.998 --    68 C    0.965
    81   1 H    0.971 --    70 N    0.944
    82   1 H    0.998 --    72 C    0.962
    83   1 H    0.999 --    73 C    0.969
    84   1 H    0.999 --    74 C    0.967
    85   1 H    0.999 --    75 C    0.971
    86   7 N    3.420 --   164 C    1.232    87 C    0.975    94 H    0.946
                           165 O    0.184
    87   6 C    3.961 --    86 N    0.975    90 C    0.964    95 H    0.950
                            88 C    0.941
    88   6 C    3.955 --    89 O    1.676   200 N    1.261    87 C    0.941
    89   8 O    1.988 --    88 C    1.676   200 N    0.195
    90   6 C    3.994 --    92 C    1.007    91 C    0.992    96 H    0.966
                            87 C    0.964
    91   6 C    3.997 --    93 C    1.022    90 C    0.992    98 H    0.975
                            97 H    0.974
    92   6 C    3.992 --    90 C    1.007   100 H    0.983   101 H    0.978
                            99 H    0.973
    93   6 C    3.995 --    91 C    1.022   102 H    0.986   104 H    0.983
                           103 H    0.982
    94   1 H    0.969 --    86 N    0.946
    95   1 H    0.989 --    87 C    0.950
    96   1 H    1.000 --    90 C    0.966
    97   1 H    1.000 --    91 C    0.974
    98   1 H    0.998 --    91 C    0.975
    99   1 H    0.996 --    92 C    0.973
   100   1 H    0.998 --    92 C    0.983
   101   1 H    0.998 --    92 C    0.978
   102   1 H    0.998 --    93 C    0.986
   103   1 H    0.998 --    93 C    0.982
   104   1 H    0.997 --    93 C    0.983
   105   7 N    3.404 --   170 C    1.217   106 C    0.979   115 H    0.943
                           171 O    0.183
   106   6 C    3.971 --   105 N    0.979   109 C    0.972   116 H    0.954
                           107 C    0.943
   107   6 C    3.957 --   108 O    1.635   206 N    1.299   106 C    0.943
   108   8 O    1.961 --   107 C    1.635   206 N    0.198
   109   6 C    3.996 --   110 C    1.011   118 H    0.973   106 C    0.972
                           117 H    0.962
   110   6 C    3.940 --   112 C    1.568   111 N    1.179   109 C    1.011
                           113 C    0.114
   111   7 N    3.600 --   113 C    1.288   110 C    1.179   119 H    0.940
                           114 N    0.105
   112   6 C    3.973 --   110 C    1.568   114 N    1.290   120 H    0.967
   113   6 C    3.958 --   114 N    1.531   111 N    1.288   121 H    0.963
                           110 C    0.114
   114   7 N    3.013 --   113 C    1.531   112 C    1.290   111 N    0.105
   115   1 H    0.965 --   105 N    0.943
   116   1 H    0.995 --   106 C    0.954
   117   1 H    0.998 --   109 C    0.962
   118   1 H    0.997 --   109 C    0.973
   119   1 H    0.971 --   111 N    0.940
   120   1 H    0.998 --   112 C    0.967
   121   1 H    0.999 --   113 C    0.963
   122   6 C    3.961 --   123 C    1.495   130 C    1.342   134 H    0.950
   123   6 C    3.951 --   122 C    1.495   124 C    1.334   135 H    0.953
   124   6 C    3.894 --   123 C    1.334   128 C    1.327   125 C    1.046
   125   6 C    3.841 --   126 O    1.649   127 O    1.099   124 C    1.046
   126   8 O    1.922 --   125 C    1.649   127 O    0.132
   127   8 O    2.147 --   125 C    1.099   136 H    0.852   126 O    0.132
   128   6 C    3.946 --   129 C    1.497   124 C    1.327   137 H    0.950
   129   6 C    3.954 --   128 C    1.497   130 C    1.336   138 H    0.949
   130   6 C    3.888 --   122 C    1.342   129 C    1.336   131 C    1.033
   131   6 C    3.868 --   132 O    1.704   133 O    1.091   130 C    1.033
   132   8 O    1.970 --   131 C    1.704   133 O    0.141
   133   8 O    2.155 --   131 C    1.091   139 H    0.865   132 O    0.141
   134   1 H    0.998 --   122 C    0.950
   135   1 H    0.999 --   123 C    0.953
   136   1 H    0.894 --   127 O    0.852
   137   1 H    0.998 --   128 C    0.950
   138   1 H    0.995 --   129 C    0.949
   139   1 H    0.902 --   133 O    0.865
   140   6 C    3.959 --   141 O    1.631     1 N    1.256   142 C    1.029
   141   8 O    1.940 --   140 C    1.631     1 N    0.191
   142   6 C    3.997 --   140 C    1.029   144 H    0.980   145 H    0.967
                           143 H    0.951
   143   1 H    0.993 --   142 C    0.951
   144   1 H    0.998 --   142 C    0.980
   145   1 H    0.995 --   142 C    0.967
   146   6 C    3.950 --   147 O    1.638    28 N    1.233   148 C    1.034
   147   8 O    1.934 --   146 C    1.638    28 N    0.184
   148   6 C    3.993 --   146 C    1.034   151 H    0.979   149 H    0.959
                           150 H    0.947
   149   1 H    0.993 --   148 C    0.959
   150   1 H    0.991 --   148 C    0.947
   151   1 H    0.998 --   148 C    0.979
   152   6 C    3.911 --   153 O    1.514    45 N    1.172   187 H    0.793
                           182 N    0.119
   153   8 O    1.880 --   152 C    1.514    45 N    0.189
   154   6 C    3.939 --   184 C    3.589
   155   1 H    0.977 --   186 H    0.837
   156   1 H    0.693 --   182 N    0.456
   157   1 H    0.930 --   185 H    0.708
   158   6 C    3.957 --   159 O    1.627    62 N    1.255   160 C    1.032
   159   8 O    1.929 --   158 C    1.627    62 N    0.189
   160   6 C    3.993 --   158 C    1.032   162 H    0.977   163 H    0.956
                           161 H    0.950
   161   1 H    0.999 --   160 C    0.950
   162   1 H    0.993 --   160 C    0.977
   163   1 H    0.993 --   160 C    0.956
   164   6 C    3.959 --   165 O    1.654    86 N    1.232   166 C    1.031
   165   8 O    1.951 --   164 C    1.654    86 N    0.184
   166   6 C    3.994 --   164 C    1.031   169 H    0.975   168 H    0.967
                           167 H    0.954
   167   1 H    0.996 --   166 C    0.954
   168   1 H    0.998 --   166 C    0.967
   169   1 H    0.992 --   166 C    0.975
   170   6 C    3.956 --   171 O    1.660   105 N    1.217   172 C    1.037
   171   8 O    1.960 --   170 C    1.660   105 N    0.183
   172   6 C    3.994 --   170 C    1.037   175 H    0.980   174 H    0.955
                           173 H    0.948
   173   1 H    0.991 --   172 C    0.948
   174   1 H    0.992 --   172 C    0.955
   175   1 H    0.998 --   172 C    0.980
   176   7 N    3.463 --    10 C    1.273   178 C    1.012   177 H    0.944
                            11 O    0.198
   177   1 H    0.964 --   176 N    0.944
   178   6 C    3.967 --   176 N    1.012   181 H    0.983   180 H    0.976
                           179 H    0.969
   179   1 H    0.996 --   178 C    0.969
   180   1 H    0.994 --   178 C    0.976
   181   1 H    0.998 --   178 C    0.983
   182   7 N    3.161 --    30 C    1.127   183 H    0.900   156 H    0.456
                            31 O    0.165   152 C    0.119
   183   1 H    0.962 --   182 N    0.900
   184   6 C    3.945 --   154 C    3.589
   185   1 H    0.867 --   157 H    0.708
   186   1 H    0.960 --   155 H    0.837
   187   1 H    0.887 --   152 C    0.793
   188   7 N    3.481 --    47 C    1.293   190 C    1.008   189 H    0.921
                            48 O    0.205
   189   1 H    0.959 --   188 N    0.921
   190   6 C    3.958 --   188 N    1.008   191 H    0.975   192 H    0.970
                           193 H    0.970
   191   1 H    0.993 --   190 C    0.975
   192   1 H    0.998 --   190 C    0.970
   193   1 H    0.993 --   190 C    0.970
   194   7 N    3.474 --    64 C    1.284   196 C    1.009   195 H    0.943
                            65 O    0.202
   195   1 H    0.964 --   194 N    0.943
   196   6 C    3.960 --   194 N    1.009   198 H    0.981   199 H    0.974
                           197 H    0.966
   197   1 H    0.996 --   196 C    0.966
   198   1 H    0.997 --   196 C    0.981
   199   1 H    0.992 --   196 C    0.974
   200   7 N    3.449 --    88 C    1.261   202 C    1.008   201 H    0.946
                            89 O    0.195
   201   1 H    0.968 --   200 N    0.946
   202   6 C    3.962 --   200 N    1.008   204 H    0.981   203 H    0.975
                           205 H    0.969
   203   1 H    0.993 --   202 C    0.975
   204   1 H    0.997 --   202 C    0.981
   205   1 H    0.997 --   202 C    0.969
   206   7 N    3.484 --   107 C    1.299   208 C    1.008   207 H    0.943
                           108 O    0.198
   207   1 H    0.963 --   206 N    0.943
   208   6 C    3.960 --   206 N    1.008   209 H    0.981   210 H    0.974
                           211 H    0.968
   209   1 H    0.997 --   208 C    0.981
   210   1 H    0.994 --   208 C    0.974
   211   1 H    0.995 --   208 C    0.968
 ---------------------------------------------------------------------------

Topologies differ in total number of bonds
Writing corrected topology to xtbtopo.mol

molecular dipole:
                 x           y           z       tot (Debye)
 q only:       -2.072      -7.428      -3.539
   full:       -1.845     -10.817      -4.401      30.051
molecular quadrupole (traceless):
                xx          xy          yy          xz          yz          zz
 q only:       56.126    -457.751     264.740    -363.479    -662.284    -320.866
  q+dip:      135.799    -662.197     285.486    -397.933    -966.059    -421.284
   full:      136.789    -663.031     283.276    -395.652    -969.961    -420.065


           -------------------------------------------------
          | TOTAL ENERGY             -279.030311946093 Eh   |
          | GRADIENT NORM             291.216605703035 Eh/α |
          | HOMO-LUMO GAP               0.074206617274 eV   |
           -------------------------------------------------

------------------------------------------------------------------------
 * finished run on 2024/06/14 at 23:43:02.157     
------------------------------------------------------------------------
 total:
 * wall-time:     0 d,  0 h,  0 min,  3.544 sec
 *  cpu-time:     0 d,  0 h,  0 min,  3.244 sec
 * ratio c/w:     0.915 speedup
 SCF:
 * wall-time:     0 d,  0 h,  0 min,  3.124 sec
 *  cpu-time:     0 d,  0 h,  0 min,  3.117 sec
 * ratio c/w:     0.998 speedup

