      -----------------------------------------------------------      
     |                   =====================                   |     
     |                           x T B                           |     
     |                   =====================                   |     
     |                         S. Grimme                         |     
     |          Mulliken Center for Theoretical Chemistry        |     
     |                    University of Bonn                     |     
      -----------------------------------------------------------      

   * xtb version 6.6.1 (8d0f1dd) compiled by 'stahn@M-Bot' on 2023-08-01

   xtb is free software: you can redistribute it and/or modify it under
   the terms of the GNU Lesser General Public License as published by
   the Free Software Foundation, either version 3 of the License, or
   (at your option) any later version.
   
   xtb is distributed in the hope that it will be useful,
   but WITHOUT ANY WARRANTY; without even the implied warranty of
   MERCHANTABILITY or FITNESS FOR A PARTICULAR PURPOSE.  See the
   GNU Lesser General Public License for more details.
   
   Cite this work as:
   * C. Bannwarth, E. Caldeweyher, S. Ehlert, A. Hansen, P. Pracht,
     J. Seibert, S. Spicher, S. Grimme, WIREs Comput. Mol. Sci., 2020, 11,
     e01493. DOI: 10.1002/wcms.1493
   
   for GFN2-xTB:
   * C. Bannwarth, S. Ehlert and S. Grimme., J. Chem. Theory Comput., 2019,
     15, 1652-1671. DOI: 10.1021/acs.jctc.8b01176
   for GFN1-xTB:
   * S. Grimme, C. Bannwarth, P. Shushkov, J. Chem. Theory Comput., 2017,
     13, 1989-2009. DOI: 10.1021/acs.jctc.7b00118
   for GFN0-xTB:
   * P. Pracht, E. Caldeweyher, S. Ehlert, S. Grimme, ChemRxiv, 2019, preprint.
     DOI: 10.26434/chemrxiv.8326202.v1
   for GFN-FF:
   * S. Spicher and S. Grimme, Angew. Chem. Int. Ed., 2020, 59, 15665-15673.
     DOI: 10.1002/anie.202004239
   
   for ALPB and GBSA implicit solvation:
   * S. Ehlert, M. Stahn, S. Spicher, S. Grimme, J. Chem. Theory Comput.,
     2021, 17, 4250-4261. DOI: 10.1021/acs.jctc.1c00471
   
   for DFT-D4:
   * E. Caldeweyher, C. Bannwarth and S. Grimme, J. Chem. Phys., 2017,
     147, 034112. DOI: 10.1063/1.4993215
   * E. Caldeweyher, S. Ehlert, A. Hansen, H. Neugebauer, S. Spicher,
     C. Bannwarth and S. Grimme, J. Chem. Phys., 2019, 150, 154122.
     DOI: 10.1063/1.5090222
   * E. Caldeweyher, J.-M. Mewes, S. Ehlert and S. Grimme, Phys. Chem. Chem. Phys.
     2020, 22, 8499-8512. DOI: 10.1039/D0CP00502A
   
   for sTDA-xTB:
   * S. Grimme and C. Bannwarth, J. Chem. Phys., 2016, 145, 054103.
     DOI: 10.1063/1.4959605
   
   in the mass-spec context:
   * V. Asgeirsson, C. Bauer and S. Grimme, Chem. Sci., 2017, 8, 4879.
     DOI: 10.1039/c7sc00601b
   * J. Koopman and S. Grimme, ACS Omega 2019, 4, 12, 15120-15133.
     DOI: 10.1021/acsomega.9b02011
   
   for metadynamics refer to:
   * S. Grimme, J. Chem. Theory Comput., 2019, 155, 2847-2862
     DOI: 10.1021/acs.jctc.9b00143
   
   for SPH calculations refer to:
   * S. Spicher and S. Grimme, J. Chem. Theory Comput., 2021, 17, 1701-1714
     DOI: 10.1021/acs.jctc.0c01306
   
   with help from (in alphabetical order)
   P. Atkinson, C. Bannwarth, F. Bohle, G. Brandenburg, E. Caldeweyher
   M. Checinski, S. Dohm, S. Ehlert, S. Ehrlich, I. Gerasimov, C. Hölzer
   A. Katbashev, J. Koopman, C. Lavigne, S. Lehtola, F. März, M. Müller,
   F. Musil, H. Neugebauer, J. Pisarek, C. Plett, P. Pracht, F. Pultar,
   J. Seibert, P. Shushkov, S. Spicher, M. Stahn, M. Steiner, T. Strunk,
   J. Stückrath, T. Rose, and J. Unsleber
   
 * started run on 2024/03/04 at 14:12:04.075     

           -------------------------------------------------
          |                Calculation Setup                |
           -------------------------------------------------

          program call               : /home/jurichc/xtb-6.6.1/bin/xtb --chrg 0 --iterations 1000 --parallel 1 --norestart --sp /panfs/accrepfs.vampire/data/yang_lab/jurichc/enzy_rcd_benchmarking/enzy_rcd_no_qm/8brb/QM_SPE/xtb_coords.mol
          hostname                   : cn1442
          coordinate file            : /panfs/accrepfs.vampire/data/yang_lab/jurichc/enzy_rcd_benchmarking/enzy_rcd_no_qm/8brb/QM_SPE/xtb_coords.mol
          omp threads                :                     1

   ID    Z sym.   atoms
    1    7 N      1, 21, 40, 46, 49, 93, 99, 105
    2    6 C      2, 3, 5-11, 22, 23, 25-28, 41, 42, 44, 45, 47, 48, 57-60,
                  63-66, 75, 77, 81, 83, 87, 89, 95, 101, 107
    3    8 O      4, 24, 43, 61, 62, 67, 68, 76, 82, 88
    4    1 H      12-20, 29-39, 50-56, 69-74, 78-80, 84-86, 90-92, 94, 96-98,
                  100, 102-104, 106, 108-110

molecular fragmentation (1/2 indicates fragments):
111111111111111111112222222222222222222222222222222222222222222222222222
22111111222222222222111111222222222222
# atoms in fragment 1/2:    32    78
 fragment masses (1/2) :      220.27      562.62
CMA distance (Bohr)    :  17.266
constraining FC (au)   :  0.0500

           -------------------------------------------------
          |                 G F N 2 - x T B                 |
           -------------------------------------------------

        Reference                      10.1021/acs.jctc.8b01176
      * Hamiltonian:
        H0-scaling (s, p, d)           1.850000    2.230000    2.230000
        zeta-weighting                 0.500000
      * Dispersion:
        s8                             2.700000
        a1                             0.520000
        a2                             5.000000
        s9                             5.000000
      * Repulsion:
        kExp                           1.500000    1.000000
        rExp                           1.000000
      * Coulomb:
        alpha                          2.000000
        third order                    shell-resolved
        anisotropic                    true
        a3                             3.000000
        a5                             4.000000
        cn-shift                       1.200000
        cn-exp                         4.000000
        max-rad                        5.000000


          ...................................................
          :                      SETUP                      :
          :.................................................:
          :  # basis functions                 278          :
          :  # atomic orbitals                 278          :
          :  # shells                          166          :
          :  # electrons                       306          :
          :  max. iterations                  1000          :
          :  Hamiltonian                  GFN2-xTB          :
          :  restarted?                      false          :
          :  GBSA solvation                  false          :
          :  PC potential                    false          :
          :  electronic temp.          300.0000000     K    :
          :  accuracy                    1.0000000          :
          :  -> integral cutoff          0.2500000E+02      :
          :  -> integral neglect         0.1000000E-07      :
          :  -> SCF convergence          0.1000000E-05 Eh   :
          :  -> wf. convergence          0.1000000E-03 e    :
          :  Broyden damping             0.4000000          :
          ...................................................

 iter      E             dE          RMSdq      gap      omega  full diag
   1   -174.7337448 -0.174734E+03  0.427E+00    2.54       0.0  T
   2   -175.2342930 -0.500548E+00  0.234E+00    2.00       1.0  T
   3   -175.2602851 -0.259921E-01  0.129E+00    1.90       1.0  T
   4   -175.2646152 -0.433009E-02  0.304E-01    1.58       1.0  T
   5   -175.2721100 -0.749480E-02  0.102E-01    1.60       1.0  T
   6   -175.2723192 -0.209246E-03  0.545E-02    1.62       1.0  T
   7   -175.2724074 -0.881769E-04  0.228E-02    1.62       1.0  T
   8   -175.2724141 -0.669379E-05  0.634E-03    1.62       1.5  T
   9   -175.2724150 -0.870261E-06  0.329E-03    1.62       2.9  T
  10   -175.2724153 -0.336569E-06  0.150E-03    1.62       6.3  T
  11   -175.2724154 -0.803739E-07  0.541E-04    1.62      17.6  T
  12   -175.2724154 -0.129741E-07  0.205E-04    1.62      46.5  T

   *** convergence criteria satisfied after 12 iterations ***

         #    Occupation            Energy/Eh            Energy/eV
      -------------------------------------------------------------
         1        2.0000           -0.7428697             -20.2145
       ...           ...                  ...                  ...
       147        2.0000           -0.4025558             -10.9541
       148        2.0000           -0.3970685             -10.8048
       149        2.0000           -0.3964646             -10.7884
       150        2.0000           -0.3799147             -10.3380
       151        2.0000           -0.3764321             -10.2432
       152        2.0000           -0.3543995              -9.6437
       153        2.0000           -0.3528405              -9.6013 (HOMO)
       154                         -0.2933226              -7.9817 (LUMO)
       155                         -0.2474742              -6.7341
       156                         -0.2471903              -6.7264
       157                         -0.2394994              -6.5171
       158                         -0.2350720              -6.3966
       ...                                ...                  ...
       278                          0.6692424              18.2110
      -------------------------------------------------------------
                  HL-Gap            0.0595179 Eh            1.6196 eV
             Fermi-level           -0.3230815 Eh           -8.7915 eV

 SCC (total)                   0 d,  0 h,  0 min,  0.632 sec
 SCC setup                      ...        0 min,  0.002 sec (  0.316%)
 Dispersion                     ...        0 min,  0.005 sec (  0.835%)
 classical contributions        ...        0 min,  0.001 sec (  0.125%)
 integral evaluation            ...        0 min,  0.049 sec (  7.684%)
 iterations                     ...        0 min,  0.347 sec ( 54.911%)
 molecular gradient             ...        0 min,  0.225 sec ( 35.540%)
 printout                       ...        0 min,  0.004 sec (  0.577%)

         :::::::::::::::::::::::::::::::::::::::::::::::::::::
         ::                     SUMMARY                     ::
         :::::::::::::::::::::::::::::::::::::::::::::::::::::
         :: total energy            -172.977290932062 Eh    ::
         :: gradient norm              0.252117823878 Eh/a0 ::
         :: HOMO-LUMO gap              1.619565618811 eV    ::
         ::.................................................::
         :: SCC energy              -175.272415397739 Eh    ::
         :: -> isotropic ES            0.369932623650 Eh    ::
         :: -> anisotropic ES          0.020442068534 Eh    ::
         :: -> anisotropic XC          0.057261452811 Eh    ::
         :: -> dispersion             -0.124754128737 Eh    ::
         :: repulsion energy           2.290209344135 Eh    ::
         :: add. restraining           0.000000000000 Eh    ::
         :: total charge               0.000000000000 e     ::
         :::::::::::::::::::::::::::::::::::::::::::::::::::::

           -------------------------------------------------
          |                Property Printout                |
           -------------------------------------------------

    * Orbital Energies and Occupations

         #    Occupation            Energy/Eh            Energy/eV
      -------------------------------------------------------------
         1        2.0000           -0.7428697             -20.2145
       ...           ...                  ...                  ...
       141        2.0000           -0.4178573             -11.3705
       142        2.0000           -0.4175726             -11.3627
       143        2.0000           -0.4151702             -11.2974
       144        2.0000           -0.4072155             -11.0809
       145        2.0000           -0.4045669             -11.0088
       146        2.0000           -0.4035756             -10.9819
       147        2.0000           -0.4025558             -10.9541
       148        2.0000           -0.3970685             -10.8048
       149        2.0000           -0.3964646             -10.7884
       150        2.0000           -0.3799147             -10.3380
       151        2.0000           -0.3764321             -10.2432
       152        2.0000           -0.3543995              -9.6437
       153        2.0000           -0.3528405              -9.6013 (HOMO)
       154                         -0.2933226              -7.9817 (LUMO)
       155                         -0.2474742              -6.7341
       156                         -0.2471903              -6.7264
       157                         -0.2394994              -6.5171
       158                         -0.2350720              -6.3966
       159                         -0.2311676              -6.2904
       160                         -0.2294940              -6.2449
       161                         -0.2229894              -6.0678
       162                         -0.2207493              -6.0069
       163                         -0.2195600              -5.9745
       164                         -0.2139511              -5.8219
       ...                                ...                  ...
       278                          0.6692424              18.2110
      -------------------------------------------------------------
                  HL-Gap            0.0595179 Eh            1.6196 eV
             Fermi-level           -0.3230815 Eh           -8.7915 eV

     #   Z          covCN         q      C6AA      α(0)
     1   7 N        2.711    -0.186    25.029     7.430
     2   6 C        3.799     0.037    19.950     6.360
     3   6 C        2.767     0.273    22.387     7.749
     4   8 O        0.858    -0.436    22.419     6.348
     5   6 C        3.815    -0.070    21.820     6.648
     6   6 C        2.970     0.009    27.814     8.651
     7   6 C        2.927    -0.039    28.958     8.825
     8   6 C        2.927    -0.035    28.860     8.810
     9   6 C        2.920    -0.029    28.726     8.789
    10   6 C        2.920    -0.027    28.685     8.783
    11   6 C        2.923    -0.031    28.766     8.795
    12   1 H        0.860     0.200     1.105     1.647
    13   1 H        0.924     0.038     2.480     2.463
    14   1 H        0.925     0.047     2.363     2.404
    15   1 H        0.925     0.051     2.310     2.377
    16   1 H        0.924     0.029     2.602     2.523
    17   1 H        0.925     0.028     2.612     2.527
    18   1 H        0.925     0.030     2.580     2.512
    19   1 H        0.924     0.031     2.578     2.511
    20   1 H        0.925     0.030     2.589     2.516
    21   7 N        2.700    -0.194    25.212     7.457
    22   6 C        3.805     0.014    20.329     6.419
    23   6 C        2.774     0.266    22.512     7.771
    24   8 O        0.859    -0.422    22.133     6.308
    25   6 C        3.859    -0.020    20.888     6.500
    26   6 C        3.806    -0.063    21.708     6.633
    27   6 C        3.756    -0.111    22.669     6.789
    28   6 C        3.751    -0.110    22.667     6.790
    29   1 H        0.860     0.153     1.384     1.843
    30   1 H        0.925     0.098     1.801     2.099
    31   1 H        0.925     0.015     2.815     2.624
    32   1 H        0.925     0.046     2.370     2.407
    33   1 H        0.924     0.030     2.590     2.517
    34   1 H        0.925     0.047     2.364     2.404
    35   1 H        0.925     0.040     2.451     2.448
    36   1 H        0.924     0.053     2.277     2.360
    37   1 H        0.925     0.043     2.411     2.428
    38   1 H        0.924     0.026     2.638     2.540
    39   1 H        0.925     0.047     2.356     2.401
    40   7 N        2.703    -0.204    25.426     7.489
    41   6 C        3.796     0.029    20.097     6.383
    42   6 C        2.757     0.264    22.540     7.775
    43   8 O        0.859    -0.430    22.284     6.329
    44   6 C        3.811    -0.065    21.738     6.637
    45   6 C        3.087     0.032    27.197     8.549
    46   7 N        2.848    -0.079    22.777     7.088
    47   6 C        3.053     0.009    27.774     8.643
    48   6 C        3.031     0.097    25.809     8.333
    49   7 N        2.007    -0.269    27.778     7.817
    50   1 H        0.860     0.163     1.317     1.798
    51   1 H        0.925     0.072     2.063     2.246
    52   1 H        0.924     0.037     2.493     2.469
    53   1 H        0.925     0.049     2.335     2.390
    54   1 H        0.861     0.168     1.283     1.775
    55   1 H        0.925     0.061     2.190     2.314
    56   1 H        0.925     0.056     2.244     2.343
    57   6 C        2.920    -0.023    28.591     8.768
    58   6 C        2.920    -0.022    28.557     8.763
    59   6 C        2.973    -0.009    28.242     8.717
    60   6 C        2.696     0.363    20.844     7.472
    61   8 O        0.858    -0.377    21.223     6.177
    62   8 O        1.659    -0.425    21.347     6.237
    63   6 C        2.920    -0.021    28.520     8.758
    64   6 C        2.920    -0.015    28.397     8.739
    65   6 C        2.973    -0.009    28.235     8.716
    66   6 C        2.696     0.355    20.977     7.496
    67   8 O        0.858    -0.412    21.919     6.277
    68   8 O        1.659    -0.384    20.546     6.119
    69   1 H        0.926     0.062     2.173     2.305
    70   1 H        0.926     0.058     2.222     2.331
    71   1 H        0.833     0.348     0.588     1.203
    72   1 H        0.926     0.053     2.286     2.364
    73   1 H        0.926     0.072     2.062     2.245
    74   1 H        0.805     0.333     0.631     1.247
    75   6 C        2.753     0.288    22.111     7.700
    76   8 O        0.860    -0.478    23.303     6.472
    77   6 C        3.777    -0.141    23.250     6.870
    78   1 H        0.924     0.070     2.089     2.261
    79   1 H        0.924     0.093     1.852     2.128
    80   1 H        0.925     0.049     2.331     2.388
    81   6 C        2.757     0.278    22.295     7.732
    82   8 O        0.862    -0.448    22.653     6.381
    83   6 C        3.771    -0.135    23.130     6.854
    84   1 H        0.924     0.074     2.046     2.237
    85   1 H        0.925     0.041     2.442     2.444
    86   1 H        0.924     0.088     1.896     2.153
    87   6 C        2.751     0.281    22.250     7.724
    88   8 O        0.862    -0.447    22.633     6.378
    89   6 C        3.774    -0.138    23.180     6.860
    90   1 H        0.924     0.088     1.897     2.154
    91   1 H        0.924     0.088     1.901     2.156
    92   1 H        0.924     0.040     2.454     2.450
    93   7 N        2.686    -0.158    24.428     7.341
    94   1 H        0.860     0.165     1.302     1.788
    95   6 C        3.694    -0.034    21.351     6.611
    96   1 H        0.925     0.063     2.161     2.299
    97   1 H        0.924     0.070     2.090     2.261
    98   1 H        0.925     0.045     2.382     2.414
    99   7 N        2.685    -0.165    24.576     7.363
   100   1 H        0.860     0.152     1.387     1.845
   101   6 C        3.705    -0.038    21.398     6.613
   102   1 H        0.925     0.093     1.851     2.128
   103   1 H        0.924     0.046     2.375     2.410
   104   1 H        0.925     0.048     2.348     2.396
   105   7 N        2.686    -0.148    24.208     7.307
   106   1 H        0.860     0.163     1.317     1.797
   107   6 C        3.690    -0.039    21.463     6.630
   108   1 H        0.925     0.056     2.245     2.343
   109   1 H        0.925     0.068     2.113     2.273
   110   1 H        0.924     0.080     1.980     2.200

 Mol. C6AA /au·bohr⁶  :     122836.739973
 Mol. C8AA /au·bohr⁸  :    2787660.859256
 Mol. α(0) /au        :        535.074526


Wiberg/Mayer (AO) data.
largest (>0.10) Wiberg bond orders for each atom

 ---------------------------------------------------------------------------
     #   Z sym  total        # sym  WBO       # sym  WBO       # sym  WBO
 ---------------------------------------------------------------------------
     1   7 N    3.428 --    75 C    1.238     2 C    0.992    12 H    0.909
                            76 O    0.187
     2   6 C    3.982 --     1 N    0.992     5 C    0.967    13 H    0.952
                             3 C    0.949
     3   6 C    3.956 --     4 O    1.676    93 N    1.255     2 C    0.949
     4   8 O    1.989 --     3 C    1.676    93 N    0.199
     5   6 C    3.993 --     6 C    1.010    15 H    0.970     2 C    0.967
                            14 H    0.962
     6   6 C    3.988 --     8 C    1.414     7 C    1.413     5 C    1.010
                            11 C    0.109
     7   6 C    3.991 --     9 C    1.445     6 C    1.413    16 H    0.968
                            10 C    0.112
     8   6 C    3.991 --    10 C    1.444     6 C    1.414    17 H    0.968
                             9 C    0.111
     9   6 C    3.992 --     7 C    1.445    11 C    1.439    18 H    0.970
                             8 C    0.111
    10   6 C    3.992 --     8 C    1.444    11 C    1.439    19 H    0.970
                             7 C    0.112
    11   6 C    3.992 --     9 C    1.439    10 C    1.439    20 H    0.970
                             6 C    0.109
    12   1 H    0.960 --     1 N    0.909
    13   1 H    0.998 --     2 C    0.952
    14   1 H    0.997 --     5 C    0.962
    15   1 H    0.997 --     5 C    0.970
    16   1 H    0.999 --     7 C    0.968
    17   1 H    0.999 --     8 C    0.968
    18   1 H    0.999 --     9 C    0.970
    19   1 H    0.999 --    10 C    0.970
    20   1 H    0.999 --    11 C    0.970
    21   7 N    3.415 --    81 C    1.216    22 C    0.985    29 H    0.940
                            82 O    0.187
    22   6 C    3.964 --    21 N    0.985    25 C    0.964    23 C    0.949
                            30 H    0.946
    23   6 C    3.955 --    24 O    1.687    99 N    1.239    22 C    0.949
    24   8 O    2.003 --    23 C    1.687    99 N    0.196
    25   6 C    3.994 --    27 C    1.010    26 C    0.994    22 C    0.964
                            31 H    0.961
    26   6 C    3.996 --    28 C    1.020    25 C    0.994    32 H    0.976
                            33 H    0.976
    27   6 C    3.994 --    25 C    1.010    36 H    0.984    35 H    0.981
                            34 H    0.979
    28   6 C    3.994 --    26 C    1.020    37 H    0.986    38 H    0.982
                            39 H    0.979
    29   1 H    0.977 --    21 N    0.940
    30   1 H    0.990 --    22 C    0.946
    31   1 H    1.000 --    25 C    0.961
    32   1 H    0.998 --    26 C    0.976
    33   1 H    0.999 --    26 C    0.976
    34   1 H    0.997 --    27 C    0.979
    35   1 H    0.998 --    27 C    0.981
    36   1 H    0.997 --    27 C    0.984
    37   1 H    0.998 --    28 C    0.986
    38   1 H    0.999 --    28 C    0.982
    39   1 H    0.998 --    28 C    0.979
    40   7 N    3.405 --    87 C    1.209    41 C    0.982    50 H    0.936
                            88 O    0.185
    41   6 C    3.969 --    40 N    0.982    44 C    0.970    51 H    0.953
                            42 C    0.940
    42   6 C    3.962 --    43 O    1.675   105 N    1.272    41 C    0.940
    43   8 O    1.994 --    42 C    1.675   105 N    0.205
    44   6 C    3.997 --    45 C    1.012    53 H    0.971    41 C    0.970
                            52 H    0.964
    45   6 C    3.940 --    47 C    1.573    46 N    1.175    44 C    1.012
                            48 C    0.110
    46   7 N    3.603 --    48 C    1.299    45 C    1.175    54 H    0.940
    47   6 C    3.972 --    45 C    1.573    49 N    1.277    55 H    0.965
    48   6 C    3.957 --    49 N    1.514    46 N    1.299    56 H    0.961
                            45 C    0.110
    49   7 N    3.108 --    48 C    1.514    47 C    1.277
    50   1 H    0.973 --    40 N    0.936
    51   1 H    0.995 --    41 C    0.953
    52   1 H    0.998 --    44 C    0.964
    53   1 H    0.997 --    44 C    0.971
    54   1 H    0.971 --    46 N    0.940
    55   1 H    0.996 --    47 C    0.965
    56   1 H    0.996 --    48 C    0.961
    57   6 C    3.990 --    58 C    1.461    65 C    1.381    69 H    0.965
                            63 C    0.103
    58   6 C    3.990 --    57 C    1.461    59 C    1.387    70 H    0.967
                            64 C    0.103
    59   6 C    3.988 --    58 C    1.387    63 C    1.386    60 C    0.985
    60   6 C    3.922 --    61 O    1.761    62 O    1.116    59 C    0.985
    61   8 O    2.067 --    60 C    1.761    62 O    0.139
    62   8 O    2.100 --    60 C    1.116    71 H    0.746    61 O    0.139
    63   6 C    3.990 --    64 C    1.464    59 C    1.386    72 H    0.967
                            57 C    0.103
    64   6 C    3.987 --    63 C    1.464    65 C    1.380    73 H    0.963
                            58 C    0.103
    65   6 C    3.988 --    57 C    1.381    64 C    1.380    66 C    1.015
    66   6 C    3.916 --    67 O    1.736    68 O    1.115    65 C    1.015
    67   8 O    2.023 --    66 C    1.736    68 O    0.164
    68   8 O    2.178 --    66 C    1.115    74 H    0.863    67 O    0.164
    69   1 H    0.995 --    57 C    0.965
    70   1 H    0.996 --    58 C    0.967
    71   1 H    0.878 --    62 O    0.746
    72   1 H    0.997 --    63 C    0.967
    73   1 H    0.994 --    64 C    0.963
    74   1 H    0.889 --    68 O    0.863
    75   6 C    3.955 --    76 O    1.639     1 N    1.238    77 C    1.034
    76   8 O    1.941 --    75 C    1.639     1 N    0.187
    77   6 C    3.994 --    75 C    1.034    78 H    0.978    80 H    0.965
                            79 H    0.946
    78   1 H    0.995 --    77 C    0.978
    79   1 H    0.991 --    77 C    0.946
    80   1 H    0.998 --    77 C    0.965
    81   6 C    3.958 --    82 O    1.664    21 N    1.216    83 C    1.035
    82   8 O    1.967 --    81 C    1.664    21 N    0.187
    83   6 C    3.995 --    81 C    1.035    85 H    0.975    86 H    0.966
                            84 H    0.951
    84   1 H    0.994 --    83 C    0.951
    85   1 H    0.998 --    83 C    0.975
    86   1 H    0.992 --    83 C    0.966
    87   6 C    3.957 --    88 O    1.668    40 N    1.209    89 C    1.036
    88   8 O    1.970 --    87 C    1.668    40 N    0.185
    89   6 C    3.994 --    87 C    1.036    92 H    0.977    91 H    0.955
                            90 H    0.950
    90   1 H    0.992 --    89 C    0.950
    91   1 H    0.992 --    89 C    0.955
    92   1 H    0.998 --    89 C    0.977
    93   7 N    3.454 --     3 C    1.255    95 C    1.017    94 H    0.942
                             4 O    0.199
    94   1 H    0.973 --    93 N    0.942
    95   6 C    3.968 --    93 N    1.017    98 H    0.983    97 H    0.974
                            96 H    0.969
    96   1 H    0.996 --    95 C    0.969
    97   1 H    0.995 --    95 C    0.974
    98   1 H    0.998 --    95 C    0.983
    99   7 N    3.437 --    23 C    1.239   101 C    1.016   100 H    0.945
                            24 O    0.196
   100   1 H    0.977 --    99 N    0.945
   101   6 C    3.963 --    99 N    1.016   103 H    0.980   104 H    0.972
                           102 H    0.970
   102   1 H    0.991 --   101 C    0.970
   103   1 H    0.998 --   101 C    0.980
   104   1 H    0.998 --   101 C    0.972
   105   7 N    3.468 --    42 C    1.272   107 C    1.012   106 H    0.940
                            43 O    0.205
   106   1 H    0.973 --   105 N    0.940
   107   6 C    3.961 --   105 N    1.012   108 H    0.984   110 H    0.970
                           109 H    0.969
   108   1 H    0.997 --   107 C    0.984
   109   1 H    0.995 --   107 C    0.969
   110   1 H    0.994 --   107 C    0.970
 ---------------------------------------------------------------------------

Topologies differ in bond orders
Writing corrected topology to xtbtopo.mol

molecular dipole:
                 x           y           z       tot (Debye)
 q only:        0.276      -4.100      -1.580
   full:        0.797      -5.472      -1.692      14.698
molecular quadrupole (traceless):
                xx          xy          yy          xz          yz          zz
 q only:       37.807    -224.241     102.345     -46.699    -330.483    -140.153
  q+dip:       67.634    -300.803      97.724     -10.518    -438.950    -165.357
   full:       67.968    -303.171      98.727      -8.809    -441.226    -166.694


           -------------------------------------------------
          | TOTAL ENERGY             -172.977290932062 Eh   |
          | GRADIENT NORM               0.252117823878 Eh/α |
          | HOMO-LUMO GAP               1.619565618811 eV   |
           -------------------------------------------------

------------------------------------------------------------------------
 * finished run on 2024/03/04 at 14:12:04.854     
------------------------------------------------------------------------
 total:
 * wall-time:     0 d,  0 h,  0 min,  0.778 sec
 *  cpu-time:     0 d,  0 h,  0 min,  0.712 sec
 * ratio c/w:     0.916 speedup
 SCF:
 * wall-time:     0 d,  0 h,  0 min,  0.634 sec
 *  cpu-time:     0 d,  0 h,  0 min,  0.632 sec
 * ratio c/w:     0.998 speedup

