      -----------------------------------------------------------      
     |                   =====================                   |     
     |                           x T B                           |     
     |                   =====================                   |     
     |                         S. Grimme                         |     
     |          Mulliken Center for Theoretical Chemistry        |     
     |                    University of Bonn                     |     
      -----------------------------------------------------------      

   * xtb version 6.6.1 (8d0f1dd) compiled by 'stahn@M-Bot' on 2023-08-01

   xtb is free software: you can redistribute it and/or modify it under
   the terms of the GNU Lesser General Public License as published by
   the Free Software Foundation, either version 3 of the License, or
   (at your option) any later version.
   
   xtb is distributed in the hope that it will be useful,
   but WITHOUT ANY WARRANTY; without even the implied warranty of
   MERCHANTABILITY or FITNESS FOR A PARTICULAR PURPOSE.  See the
   GNU Lesser General Public License for more details.
   
   Cite this work as:
   * C. Bannwarth, E. Caldeweyher, S. Ehlert, A. Hansen, P. Pracht,
     J. Seibert, S. Spicher, S. Grimme, WIREs Comput. Mol. Sci., 2020, 11,
     e01493. DOI: 10.1002/wcms.1493
   
   for GFN2-xTB:
   * C. Bannwarth, S. Ehlert and S. Grimme., J. Chem. Theory Comput., 2019,
     15, 1652-1671. DOI: 10.1021/acs.jctc.8b01176
   for GFN1-xTB:
   * S. Grimme, C. Bannwarth, P. Shushkov, J. Chem. Theory Comput., 2017,
     13, 1989-2009. DOI: 10.1021/acs.jctc.7b00118
   for GFN0-xTB:
   * P. Pracht, E. Caldeweyher, S. Ehlert, S. Grimme, ChemRxiv, 2019, preprint.
     DOI: 10.26434/chemrxiv.8326202.v1
   for GFN-FF:
   * S. Spicher and S. Grimme, Angew. Chem. Int. Ed., 2020, 59, 15665-15673.
     DOI: 10.1002/anie.202004239
   
   for ALPB and GBSA implicit solvation:
   * S. Ehlert, M. Stahn, S. Spicher, S. Grimme, J. Chem. Theory Comput.,
     2021, 17, 4250-4261. DOI: 10.1021/acs.jctc.1c00471
   
   for DFT-D4:
   * E. Caldeweyher, C. Bannwarth and S. Grimme, J. Chem. Phys., 2017,
     147, 034112. DOI: 10.1063/1.4993215
   * E. Caldeweyher, S. Ehlert, A. Hansen, H. Neugebauer, S. Spicher,
     C. Bannwarth and S. Grimme, J. Chem. Phys., 2019, 150, 154122.
     DOI: 10.1063/1.5090222
   * E. Caldeweyher, J.-M. Mewes, S. Ehlert and S. Grimme, Phys. Chem. Chem. Phys.
     2020, 22, 8499-8512. DOI: 10.1039/D0CP00502A
   
   for sTDA-xTB:
   * S. Grimme and C. Bannwarth, J. Chem. Phys., 2016, 145, 054103.
     DOI: 10.1063/1.4959605
   
   in the mass-spec context:
   * V. Asgeirsson, C. Bauer and S. Grimme, Chem. Sci., 2017, 8, 4879.
     DOI: 10.1039/c7sc00601b
   * J. Koopman and S. Grimme, ACS Omega 2019, 4, 12, 15120-15133.
     DOI: 10.1021/acsomega.9b02011
   
   for metadynamics refer to:
   * S. Grimme, J. Chem. Theory Comput., 2019, 155, 2847-2862
     DOI: 10.1021/acs.jctc.9b00143
   
   for SPH calculations refer to:
   * S. Spicher and S. Grimme, J. Chem. Theory Comput., 2021, 17, 1701-1714
     DOI: 10.1021/acs.jctc.0c01306
   
   with help from (in alphabetical order)
   P. Atkinson, C. Bannwarth, F. Bohle, G. Brandenburg, E. Caldeweyher
   M. Checinski, S. Dohm, S. Ehlert, S. Ehrlich, I. Gerasimov, C. Hölzer
   A. Katbashev, J. Koopman, C. Lavigne, S. Lehtola, F. März, M. Müller,
   F. Musil, H. Neugebauer, J. Pisarek, C. Plett, P. Pracht, F. Pultar,
   J. Seibert, P. Shushkov, S. Spicher, M. Stahn, M. Steiner, T. Strunk,
   J. Stückrath, T. Rose, and J. Unsleber
   
 * started run on 2024/03/04 at 14:13:51.127     

           -------------------------------------------------
          |                Calculation Setup                |
           -------------------------------------------------

          program call               : /home/jurichc/xtb-6.6.1/bin/xtb --chrg 1 --iterations 1000 --parallel 1 --norestart --input /panfs/accrepfs.vampire/data/yang_lab/jurichc/enzy_rcd_benchmarking/enzy_rcd_no_qm/3r3v/QM_OPT/xtb_settings.inp --opt normal /panfs/accrepfs.vampire/data/yang_lab/jurichc/enzy_rcd_benchmarking/enzy_rcd_no_qm/3r3v/QM_OPT/xtb_coords.mol
          hostname                   : cn1445
          coordinate file            : /panfs/accrepfs.vampire/data/yang_lab/jurichc/enzy_rcd_benchmarking/enzy_rcd_no_qm/3r3v/QM_OPT/xtb_coords.mol
          omp threads                :                     1

   ID    Z sym.   atoms
    1    7 N      1, 21, 28, 35, 42, 44, 45, 59, 111, 117, 123, 129
    2    6 C      2, 3, 5-11, 22, 23, 25, 26, 36, 37, 39-41, 43, 60, 61,
                  63-69, 80, 81, 87, 89, 93, 95, 99, 101, 105, 107, 113, 119,
                  125, 131
    3    8 O      4, 24, 27, 38, 62, 70, 82, 83, 88, 94, 100, 106
    4    1 H      12-20, 29-34, 46-58, 71-79, 85, 86, 90-92, 96-98, 102-104,
                  108-110, 112, 114-116, 118, 120-122, 124, 126-128, 130,
                  132-134
    5    9 F      84
constraining bond 12 1 to    1.0750000 Å, actual value:    1.0745298 Å
constraining bond 13 2 to    1.0180000 Å, actual value:    1.0180310 Å
constraining bond 14 5 to    1.0890000 Å, actual value:    1.0887797 Å
constraining bond 15 5 to    1.0900000 Å, actual value:    1.0898992 Å
constraining bond 16 7 to    1.0900000 Å, actual value:    1.0902093 Å
constraining bond 17 8 to    1.0910000 Å, actual value:    1.0912760 Å
constraining bond 18 9 to    1.0890000 Å, actual value:    1.0894500 Å
constraining bond 19 10 to    1.0900000 Å, actual value:    1.0899125 Å
constraining bond 20 11 to    1.0890000 Å, actual value:    1.0893270 Å
constraining bond 29 21 to    1.0120000 Å, actual value:    1.0118865 Å
constraining bond 30 22 to    1.0700000 Å, actual value:    1.0697711 Å
constraining bond 31 25 to    1.0910000 Å, actual value:    1.0912132 Å
constraining bond 32 25 to    1.0900000 Å, actual value:    1.0895991 Å
constraining bond 33 28 to    1.0000000 Å, actual value:    1.0002101 Å
constraining bond 34 28 to    1.0000000 Å, actual value:    0.9999151 Å
constraining bond 46 35 to    1.0200000 Å, actual value:    1.0203652 Å
constraining bond 47 36 to    1.0780000 Å, actual value:    1.0779491 Å
constraining bond 48 39 to    1.0910000 Å, actual value:    1.0907714 Å
constraining bond 49 39 to    1.0910000 Å, actual value:    1.0911307 Å
constraining bond 50 40 to    1.0910000 Å, actual value:    1.0908255 Å
constraining bond 51 40 to    1.0900000 Å, actual value:    1.0903092 Å
constraining bond 52 41 to    1.0910000 Å, actual value:    1.0913800 Å
constraining bond 53 41 to    1.0940000 Å, actual value:    1.0937757 Å
constraining bond 54 42 to    1.0380000 Å, actual value:    1.0377467 Å
constraining bond 55 44 to    1.0050000 Å, actual value:    1.0051339 Å
constraining bond 56 44 to    1.0060000 Å, actual value:    1.0058326 Å
constraining bond 57 45 to    1.0350000 Å, actual value:    1.0354333 Å
constraining bond 58 45 to    1.0050000 Å, actual value:    1.0048309 Å
constraining bond 71 59 to    1.0130000 Å, actual value:    1.0127814 Å
constraining bond 72 60 to    1.0800000 Å, actual value:    1.0796528 Å
constraining bond 73 63 to    1.0910000 Å, actual value:    1.0909171 Å
constraining bond 74 63 to    1.0890000 Å, actual value:    1.0894224 Å
constraining bond 75 65 to    1.0900000 Å, actual value:    1.0902171 Å
constraining bond 76 66 to    1.0900000 Å, actual value:    1.0897349 Å
constraining bond 77 67 to    1.0890000 Å, actual value:    1.0892324 Å
constraining bond 78 68 to    1.0900000 Å, actual value:    1.0902171 Å
constraining bond 79 70 to    0.9610000 Å, actual value:    0.9613647 Å
constraining bond 85 80 to    1.0900000 Å, actual value:    1.0899657 Å
constraining bond 86 80 to    1.0940000 Å, actual value:    1.0940778 Å
constraining bond 90 89 to    1.0910000 Å, actual value:    1.0897363 Å
constraining bond 91 89 to    1.0900000 Å, actual value:    1.0907773 Å
constraining bond 92 89 to    1.0900000 Å, actual value:    1.0900171 Å
constraining bond 96 95 to    1.0910000 Å, actual value:    1.0914716 Å
constraining bond 97 95 to    1.0900000 Å, actual value:    1.0895748 Å
constraining bond 98 95 to    1.0900000 Å, actual value:    1.0905330 Å
constraining bond 102 101 to    1.0910000 Å, actual value:    1.0899822 Å
constraining bond 103 101 to    1.0900000 Å, actual value:    1.0904262 Å
constraining bond 104 101 to    1.0900000 Å, actual value:    1.0909139 Å
constraining bond 108 107 to    1.0910000 Å, actual value:    1.0906696 Å
constraining bond 109 107 to    1.0900000 Å, actual value:    1.0901492 Å
constraining bond 110 107 to    1.0900000 Å, actual value:    1.0908649 Å
constraining bond 112 111 to    1.4800000 Å, actual value:    1.4801045 Å
constraining bond 114 113 to    1.0900000 Å, actual value:    1.0893531 Å
constraining bond 115 113 to    1.0900000 Å, actual value:    1.0897459 Å
constraining bond 116 113 to    1.0900000 Å, actual value:    1.0897354 Å
constraining bond 118 117 to    1.0250000 Å, actual value:    1.0249420 Å
constraining bond 120 119 to    1.0900000 Å, actual value:    1.0892356 Å
constraining bond 121 119 to    1.0900000 Å, actual value:    1.0901602 Å
constraining bond 122 119 to    1.0900000 Å, actual value:    1.0896794 Å
constraining bond 124 123 to    1.0200000 Å, actual value:    1.0201638 Å
constraining bond 126 125 to    1.0900000 Å, actual value:    1.0895381 Å
constraining bond 127 125 to    1.0900000 Å, actual value:    1.0901661 Å
constraining bond 128 125 to    1.0900000 Å, actual value:    1.0899593 Å
constraining bond 130 129 to    1.0350000 Å, actual value:    1.0353382 Å
constraining bond 132 131 to    1.0900000 Å, actual value:    1.0900533 Å
constraining bond 133 131 to    1.0900000 Å, actual value:    1.0896647 Å
constraining bond 134 131 to    1.0900000 Å, actual value:    1.0897024 Å

molecular fragmentation (1/2 indicates fragments):
111111111111111111112222222222222222222222222222222222222222222222222222
22222222222222111111222222222222222222121111222222222222222222
# atoms in fragment 1/2:    31   103
 fragment masses (1/2) :      219.26      731.79
CMA distance (Bohr)    :  12.937
constraining FC (au)   :  0.0500

           -------------------------------------------------
          |                 G F N 2 - x T B                 |
           -------------------------------------------------

        Reference                      10.1021/acs.jctc.8b01176
      * Hamiltonian:
        H0-scaling (s, p, d)           1.850000    2.230000    2.230000
        zeta-weighting                 0.500000
      * Dispersion:
        s8                             2.700000
        a1                             0.520000
        a2                             5.000000
        s9                             5.000000
      * Repulsion:
        kExp                           1.500000    1.000000
        rExp                           1.000000
      * Coulomb:
        alpha                          2.000000
        third order                    shell-resolved
        anisotropic                    true
        a3                             3.000000
        a5                             4.000000
        cn-shift                       1.200000
        cn-exp                         4.000000
        max-rad                        5.000000


          ...................................................
          :                      SETUP                      :
          :.................................................:
          :  # basis functions                 335          :
          :  # atomic orbitals                 335          :
          :  # shells                          201          :
          :  # electrons                       373          :
          :  max. iterations                  1000          :
          :  Hamiltonian                  GFN2-xTB          :
          :  restarted?                      false          :
          :  GBSA solvation                  false          :
          :  PC potential                    false          :
          :  electronic temp.          300.0000000     K    :
          :  accuracy                    1.0000000          :
          :  -> integral cutoff          0.2500000E+02      :
          :  -> integral neglect         0.1000000E-07      :
          :  -> SCF convergence          0.1000000E-05 Eh   :
          :  -> wf. convergence          0.1000000E-03 e    :
          :  Broyden damping             0.4000000          :
          ...................................................

 iter      E             dE          RMSdq      gap      omega  full diag
   1   -214.0526445 -0.214053E+03  0.436E+00    3.04       0.0  T
   2   -214.7333375 -0.680693E+00  0.242E+00    1.92       1.0  T
   3   -214.8244646 -0.911271E-01  0.148E+00    0.98       1.0  T
   4   -214.8425143 -0.180497E-01  0.799E-01    2.13       1.0  T
   5   -214.8658391 -0.233248E-01  0.490E-01    2.69       1.0  T
   6   -214.8676795 -0.184038E-02  0.450E-01    2.72       1.0  T
   7   -214.8444995  0.231800E-01  0.480E-01    2.96       1.0  T
   8   -214.8741488 -0.296492E-01  0.349E-01    3.20       1.0  T
   9   -214.8744276 -0.278849E-03  0.368E-01    3.33       1.0  T
  10   -214.8915859 -0.171583E-01  0.328E-01    3.37       1.0  T
  11   -214.8998884 -0.830253E-02  0.281E-01    3.40       1.0  T
  12   -214.8822788  0.176097E-01  0.344E-01    3.46       1.0  T
  13   -214.8902418 -0.796302E-02  0.284E-01    3.36       1.0  T
  14   -214.8388585  0.513833E-01  0.429E-01    3.43       1.0  T
  15   -214.8807783 -0.419198E-01  0.290E-01    3.49       1.0  T
  16   -214.9144591 -0.336808E-01  0.132E-01    3.54       1.0  T
  17   -214.9140378  0.421278E-03  0.125E-01    3.51       1.0  T
  18   -214.9199686 -0.593074E-02  0.316E-02    3.55       1.0  T
  19   -214.9200842 -0.115601E-03  0.250E-02    3.55       1.0  T
  20   -214.9200839  0.274996E-06  0.226E-02    3.55       1.0  T
  21   -214.9200726  0.113028E-04  0.225E-02    3.54       1.0  T
  22   -214.9202763 -0.203690E-03  0.583E-03    3.55       1.5  T
  23   -214.9202814 -0.514007E-05  0.498E-03    3.55       1.7  T
  24   -214.9202928 -0.113568E-04  0.951E-04    3.55       9.1  T
  25   -214.9202930 -0.161935E-06  0.734E-04    3.55      11.8  T
  26   -214.9202931 -0.176064E-06  0.311E-04    3.55      27.7  T

   *** convergence criteria satisfied after 26 iterations ***

         #    Occupation            Energy/Eh            Energy/eV
      -------------------------------------------------------------
         1        2.0000           -0.8744630             -23.7953
       ...           ...                  ...                  ...
       181        1.9697           -0.4663298             -12.6895
       182        1.9410           -0.4656665             -12.6714
       183        1.9214           -0.4653743             -12.6635
       184        1.8799           -0.4649273             -12.6513
       185        1.8367           -0.4645879             -12.6421
       186        1.8300           -0.4645422             -12.6408
       187        1.6417           -0.4635894             -12.6149 (HOMO)
       188                         -0.3332795              -9.0690 (LUMO)
       189                         -0.3296822              -8.9711
       190                         -0.3243654              -8.8264
       191                         -0.3088959              -8.4055
       192                         -0.3037631              -8.2658
       ...                                ...                  ...
       335                          0.6353288              17.2882
      -------------------------------------------------------------
                  HL-Gap            0.1303099 Eh            3.5459 eV
             Fermi-level           -0.4307351 Eh          -11.7209 eV

 SCC (total)                   0 d,  0 h,  0 min,  1.371 sec
 SCC setup                      ...        0 min,  0.005 sec (  0.393%)
 Dispersion                     ...        0 min,  0.013 sec (  0.977%)
 classical contributions        ...        0 min,  0.002 sec (  0.175%)
 integral evaluation            ...        0 min,  0.090 sec (  6.573%)
 iterations                     ...        0 min,  0.971 sec ( 70.827%)
 molecular gradient             ...        0 min,  0.270 sec ( 19.669%)
 printout                       ...        0 min,  0.019 sec (  1.380%)

         :::::::::::::::::::::::::::::::::::::::::::::::::::::
         ::                     SUMMARY                     ::
         :::::::::::::::::::::::::::::::::::::::::::::::::::::
         :: total energy            -212.190526258006 Eh    ::
         :: gradient norm              0.366675911230 Eh/a0 ::
         :: HOMO-LUMO gap              3.545911758212 eV    ::
         ::.................................................::
         :: SCC energy              -214.920293141682 Eh    ::
         :: -> isotropic ES            0.529557115510 Eh    ::
         :: -> anisotropic ES         -0.004615394985 Eh    ::
         :: -> anisotropic XC          0.060921866458 Eh    ::
         :: -> dispersion             -0.146624821639 Eh    ::
         :: repulsion energy           2.723550058524 Eh    ::
         :: add. restraining           0.000001838071 Eh    ::
         :: total charge               1.000000000710 e     ::
         :::::::::::::::::::::::::::::::::::::::::::::::::::::

      ----------------------------------------------------------- 
     |                   =====================                   |
     |                        A N C O P T                        |
     |                   =====================                   |
     |               Approximate Normal Coordinate               |
     |                Rational Function Optimizer                |
      ----------------------------------------------------------- 

          ...................................................
          :                      SETUP                      :
          :.................................................:
          :   optimization level            normal          :
          :   max. optcycles                   402          :
          :   ANC micro-cycles                  20          :
          :   degrees of freedom               348          :
          :.................................................:
          :   RF solver                   davidson          :
          :   write xtbopt.log                true          :
          :   linear?                        false          :
          :   energy convergence         0.5000000E-05 Eh   :
          :   grad. convergence          0.1000000E-02 Eh/α :
          :   maxmium RF displ.          1.0000000          :
          :   Hlow (freq-cutoff)         0.1000000E-01      :
          :   Hmax (freq-cutoff)         5.0000000          :
          :   S6 in model hess.         20.0000000          :
          ...................................................

generating ANC from model Hessian ...
Using Lindh-Hessian (1995)
 Shifting diagonal of input Hessian by   9.840549985540183E-003
 Lowest  eigenvalues of input Hessian
   -0.000000   -0.000000   -0.000000   -0.000000   -0.000000   -0.000000
   -0.000000   -0.000000   -0.000000   -0.000000   -0.000000   -0.000000
   -0.000000   -0.000000   -0.000000   -0.000000   -0.000000   -0.000000
 Highest eigenvalues
    2.373417    2.380832    2.398244    2.411058    2.426007    2.438674
 

........................................................................
.............................. CYCLE    1 ..............................
........................................................................

 iter      E             dE          RMSdq      gap      omega  full diag
   1   -214.9202931 -0.214920E+03  0.372E-04    3.55       0.0  T
   2   -214.9202799  0.132656E-04  0.543E-03    3.55       1.6  T
   3   -214.9202930 -0.131886E-04  0.560E-04    3.55      15.4  T
   4   -214.9202932 -0.117512E-06  0.198E-04    3.55      43.6  T
   5   -214.9202932 -0.848863E-08  0.143E-04    3.55      60.3  T
     SCC iter.                  ...        0 min,  0.192 sec
     gradient                   ...        0 min,  0.246 sec
 * total energy  :  -212.1905263 Eh     change       -0.2579944E-07 Eh
   gradient norm :     0.3231473 Eh/α   predicted     0.0000000E+00 (-100.00%)
   displ. norm   :     0.5766063 α      lambda       -0.1337570E+00
   maximum displ.:     0.1323672 α      in ANC's #100, #195, #77, ...

........................................................................
.............................. CYCLE    2 ..............................
........................................................................

 iter      E             dE          RMSdq      gap      omega  full diag
   1   -214.9264636 -0.214926E+03  0.309E-01    3.49       0.0  T
   2   -214.8876784  0.387852E-01  0.410E-01    3.43       1.0  T
   3   -214.8985633 -0.108849E-01  0.373E-01    3.62       1.0  T
   4   -214.8390136  0.595497E-01  0.525E-01    3.70       1.0  T
   5   -214.9154399 -0.764262E-01  0.288E-01    3.65       1.0  T
   6   -214.9342351 -0.187952E-01  0.167E-01    3.76       1.0  T
   7   -214.8996445  0.345906E-01  0.329E-01    3.68       1.0  T
   8   -214.8659359  0.337086E-01  0.521E-01    3.69       1.0  T
   9   -214.9324774 -0.665415E-01  0.153E-01    3.79       1.0  T
  10   -214.9362910 -0.381360E-02  0.113E-01    3.77       1.0  T
  11   -214.9395471 -0.325613E-02  0.643E-02    3.78       1.0  T
  12   -214.9374706  0.207652E-02  0.871E-02    3.79       1.0  T
  13   -214.9406047 -0.313415E-02  0.398E-02    3.79       1.0  T
  14   -214.9392220  0.138273E-02  0.624E-02    3.78       1.0  T
  15   -214.9408689 -0.164690E-02  0.212E-02    3.79       1.0  T
  16   -214.9410072 -0.138321E-03  0.117E-02    3.79       1.0  T
  17   -214.9410382 -0.309455E-04  0.708E-03    3.79       1.2  T
  18   -214.9410613 -0.231452E-04  0.182E-03    3.79       4.7  T
  19   -214.9410608  0.509128E-06  0.186E-03    3.79       4.6  T
  20   -214.9410622 -0.142404E-05  0.552E-04    3.79      15.7  T
  21   -214.9410623 -0.886367E-07  0.232E-04    3.79      37.2  T
  22   -214.9410623 -0.246599E-07  0.515E-05    3.79     167.7  T
     SCC iter.                  ...        0 min,  0.809 sec
     gradient                   ...        0 min,  0.269 sec
 * total energy  :  -212.2935151 Eh     change       -0.1029889E+00 Eh
   gradient norm :     0.1648774 Eh/α   predicted    -0.8921671E-01 ( -13.37%)
   displ. norm   :     0.6240631 α      lambda       -0.7682409E-01
   maximum displ.:     0.1630169 α      in ANC's #100, #195, #155, ...

........................................................................
.............................. CYCLE    3 ..............................
........................................................................

 iter      E             dE          RMSdq      gap      omega  full diag
   1   -214.9646253 -0.214965E+03  0.278E-01    3.74       0.0  T
   2   -214.8884210  0.762044E-01  0.536E-01    3.37       1.0  T
   3   -214.9011020 -0.126810E-01  0.453E-01    3.60       1.0  T
   4   -214.9019257 -0.823733E-03  0.477E-01    3.68       1.0  T
   5   -214.9544608 -0.525351E-01  0.273E-01    3.74       1.0  T
   6   -214.9696455 -0.151847E-01  0.144E-01    3.79       1.0  T
   7   -214.9488652  0.207803E-01  0.249E-01    3.71       1.0  T
   8   -214.9451626  0.370267E-02  0.303E-01    3.75       1.0  T
   9   -214.9660229 -0.208603E-01  0.149E-01    3.79       1.0  T
  10   -214.9726518 -0.662886E-02  0.839E-02    3.78       1.0  T
  11   -214.9743551 -0.170337E-02  0.515E-02    3.78       1.0  T
  12   -214.9741899  0.165250E-03  0.549E-02    3.78       1.0  T
  13   -214.9752451 -0.105524E-02  0.181E-02    3.79       1.0  T
  14   -214.9752925 -0.473975E-04  0.170E-02    3.79       1.0  T
  15   -214.9753570 -0.644787E-04  0.671E-03    3.79       1.3  T
  16   -214.9753751 -0.180646E-04  0.222E-03    3.79       3.9  T
  17   -214.9753769 -0.180216E-05  0.837E-04    3.79      10.3  T
  18   -214.9753770 -0.150660E-06  0.350E-04    3.79      24.7  T
  19   -214.9753770 -0.100350E-07  0.311E-04    3.79      27.8  T
     SCC iter.                  ...        0 min,  0.691 sec
     gradient                   ...        0 min,  0.274 sec
 * total energy  :  -212.3483091 Eh     change       -0.5479401E-01 Eh
   gradient norm :     0.0715200 Eh/α   predicted    -0.5337182E-01 (  -2.60%)
   displ. norm   :     0.5881317 α      lambda       -0.2979432E-01
   maximum displ.:     0.1564680 α      in ANC's #100, #49, #92, ...

........................................................................
.............................. CYCLE    4 ..............................
........................................................................

 iter      E             dE          RMSdq      gap      omega  full diag
   1   -214.9845064 -0.214985E+03  0.195E-01    3.77       0.0  T
   2   -214.9268690  0.576374E-01  0.435E-01    3.60       1.0  T
   3   -214.9499369 -0.230679E-01  0.344E-01    3.76       1.0  T
   4   -214.9521987 -0.226173E-02  0.314E-01    3.74       1.0  T
   5   -214.9592095 -0.701084E-02  0.269E-01    3.71       1.0  T
   6   -214.9428461  0.163634E-01  0.397E-01    3.75       1.0  T
   7   -214.9808900 -0.380439E-01  0.144E-01    3.81       1.0  T
   8   -214.9865093 -0.561934E-02  0.836E-02    3.80       1.0  T
   9   -214.9880116 -0.150228E-02  0.618E-02    3.81       1.0  T
  10   -214.9889181 -0.906476E-03  0.304E-02    3.81       1.0  T
  11   -214.9889390 -0.209382E-04  0.299E-02    3.81       1.0  T
  12   -214.9892000 -0.261006E-03  0.179E-02    3.81       1.0  T
  13   -214.9891658  0.341818E-04  0.192E-02    3.81       1.0  T
  14   -214.9893119 -0.146054E-03  0.703E-03    3.81       1.2  T
  15   -214.9893324 -0.204698E-04  0.209E-03    3.81       4.1  T
  16   -214.9893343 -0.192441E-05  0.406E-04    3.81      21.3  T
  17   -214.9893343 -0.375413E-07  0.251E-04    3.81      34.4  T
  18   -214.9893344 -0.195865E-07  0.140E-04    3.81      61.7  T
     SCC iter.                  ...        0 min,  1.310 sec
     gradient                   ...        0 min,  0.270 sec
 * total energy  :  -212.3703554 Eh     change       -0.2204624E-01 Eh
   gradient norm :     0.0590100 Eh/α   predicted    -0.2005008E-01 (  -9.05%)
   displ. norm   :     0.5943857 α      lambda       -0.1783533E-01
   maximum displ.:     0.1482372 α      in ANC's #92, #100, #77, ...

........................................................................
.............................. CYCLE    5 ..............................
........................................................................

 iter      E             dE          RMSdq      gap      omega  full diag
   1   -214.9888590 -0.214989E+03  0.160E-01    3.81       0.0  T
   2   -214.9482638  0.405953E-01  0.361E-01    3.67       1.0  T
   3   -214.9695286 -0.212649E-01  0.288E-01    3.81       1.0  T
   4   -214.9864055 -0.168769E-01  0.141E-01    3.82       1.0  T
   5   -214.9479946  0.384109E-01  0.316E-01    3.79       1.0  T
   6   -214.9773459 -0.293514E-01  0.205E-01    3.81       1.0  T
   7   -214.9829319 -0.558598E-02  0.163E-01    3.86       1.0  T
   8   -214.9905624 -0.763050E-02  0.719E-02    3.86       1.0  T
   9   -214.9896759  0.886462E-03  0.843E-02    3.86       1.0  T
  10   -214.9926780 -0.300211E-02  0.245E-02    3.86       1.0  T
  11   -214.9928922 -0.214159E-03  0.115E-02    3.86       1.0  T
  12   -214.9929261 -0.339426E-04  0.693E-03    3.86       1.2  T
  13   -214.9929404 -0.142255E-04  0.284E-03    3.86       3.0  T
  14   -214.9929424 -0.208602E-05  0.190E-03    3.86       4.5  T
  15   -214.9929431 -0.695457E-06  0.142E-03    3.86       6.1  T
  16   -214.9929440 -0.889215E-06  0.230E-04    3.86      37.6  T
  17   -214.9929440 -0.956953E-08  0.158E-04    3.86      54.6  T
     SCC iter.                  ...        0 min,  0.605 sec
     gradient                   ...        0 min,  0.270 sec
 * total energy  :  -212.3839547 Eh     change       -0.1359934E-01 Eh
   gradient norm :     0.0413914 Eh/α   predicted    -0.1206824E-01 ( -11.26%)
   displ. norm   :     0.6090292 α      lambda       -0.1121165E-01
   maximum displ.:     0.1738273 α      in ANC's #20, #92, #100, ...

........................................................................
.............................. CYCLE    6 ..............................
........................................................................

 iter      E             dE          RMSdq      gap      omega  full diag
   1   -215.0024295 -0.215002E+03  0.144E-01    3.88       0.0  T
   2   -214.9604019  0.420276E-01  0.359E-01    3.75       1.0  T
   3   -214.9858038 -0.254018E-01  0.247E-01    3.85       1.0  T
   4   -214.9980383 -0.122346E-01  0.142E-01    3.93       1.0  T
   5   -214.9824369  0.156014E-01  0.227E-01    3.84       1.0  T
   6   -215.0022348 -0.197979E-01  0.118E-01    3.91       1.0  T
   7   -215.0053590 -0.312418E-02  0.451E-02    3.93       1.0  T
   8   -215.0049576  0.401378E-03  0.532E-02    3.93       1.0  T
   9   -215.0048099  0.147765E-03  0.534E-02    3.94       1.0  T
  10   -215.0052827 -0.472794E-03  0.399E-02    3.94       1.0  T
  11   -215.0059272 -0.644567E-03  0.759E-03    3.94       1.1  T
  12   -215.0059343 -0.703233E-05  0.626E-03    3.94       1.4  T
  13   -215.0059397 -0.543225E-05  0.497E-03    3.94       1.7  T
  14   -215.0059507 -0.109809E-04  0.104E-03    3.94       8.3  T
  15   -215.0059511 -0.397224E-06  0.323E-04    3.94      26.8  T
  16   -215.0059511 -0.261394E-07  0.217E-04    3.94      39.7  T
     SCC iter.                  ...        0 min,  0.576 sec
     gradient                   ...        0 min,  0.271 sec
 * total energy  :  -212.3922138 Eh     change       -0.8259035E-02 Eh
   gradient norm :     0.0333558 Eh/α   predicted    -0.7685124E-02 (  -6.95%)
   displ. norm   :     0.5933453 α      lambda       -0.7585424E-02
   maximum displ.:     0.2190879 α      in ANC's #20, #22, #1, ...

........................................................................
.............................. CYCLE    7 ..............................
........................................................................

 iter      E             dE          RMSdq      gap      omega  full diag
   1   -215.0089625 -0.215009E+03  0.137E-01    3.96       0.0  T
   2   -214.9724608  0.365017E-01  0.323E-01    3.87       1.0  T
   3   -214.9839099 -0.114492E-01  0.267E-01    3.93       1.0  T
   4   -214.9960704 -0.121604E-01  0.218E-01    4.01       1.0  T
   5   -215.0104942 -0.144238E-01  0.892E-02    4.01       1.0  T
   6   -214.9890321  0.214621E-01  0.237E-01    3.99       1.0  T
   7   -215.0024259 -0.133939E-01  0.147E-01    4.00       1.0  T
   8   -215.0079058 -0.547988E-02  0.100E-01    4.03       1.0  T
   9   -215.0121211 -0.421527E-02  0.222E-02    4.04       1.0  T
  10   -215.0118279  0.293236E-03  0.317E-02    4.04       1.0  T
  11   -215.0121762 -0.348394E-03  0.149E-02    4.04       1.0  T
  12   -215.0122428 -0.665891E-04  0.828E-03    4.04       1.0  T
  13   -215.0122403  0.253643E-05  0.847E-03    4.04       1.0  T
  14   -215.0122698 -0.295086E-04  0.672E-04    4.04      12.8  T
  15   -215.0122699 -0.504780E-07  0.469E-04    4.04      18.4  T
  16   -215.0122699 -0.810793E-07  0.160E-04    4.04      54.1  T
     SCC iter.                  ...        0 min,  0.593 sec
     gradient                   ...        0 min,  0.273 sec
 * total energy  :  -212.3971571 Eh     change       -0.4943374E-02 Eh
   gradient norm :     0.0276965 Eh/α   predicted    -0.5127972E-02 (   3.73%)
   displ. norm   :     0.5736557 α      lambda       -0.5058987E-02
   maximum displ.:     0.2318729 α      in ANC's #20, #22, #18, ...

........................................................................
.............................. CYCLE    8 ..............................
........................................................................

 iter      E             dE          RMSdq      gap      omega  full diag
   1   -215.0221136 -0.215022E+03  0.118E-01    4.06       0.0  T
   2   -214.9754166  0.466970E-01  0.357E-01    3.91       1.0  T
   3   -215.0037589 -0.283422E-01  0.243E-01    4.11       1.0  T
   4   -215.0232091 -0.194503E-01  0.751E-02    4.12       1.0  T
   5   -215.0029065  0.203026E-01  0.215E-01    4.06       1.0  T
   6   -215.0220777 -0.191712E-01  0.900E-02    4.09       1.0  T
   7   -215.0243399 -0.226222E-02  0.347E-02    4.12       1.0  T
   8   -215.0245837 -0.243825E-03  0.273E-02    4.11       1.0  T
   9   -215.0245217  0.620530E-04  0.283E-02    4.11       1.0  T
  10   -215.0247618 -0.240074E-03  0.734E-03    4.11       1.2  T
  11   -215.0246378  0.123997E-03  0.181E-02    4.11       1.0  T
  12   -215.0247636 -0.125828E-03  0.736E-03    4.11       1.2  T
  13   -215.0247849 -0.213421E-04  0.185E-03    4.11       4.7  T
  14   -215.0247865 -0.156135E-05  0.400E-04    4.11      21.6  T
  15   -215.0247865 -0.362414E-07  0.181E-04    4.11      47.7  T
  16   -215.0247865 -0.184014E-08  0.179E-04    4.11      48.4  T
     SCC iter.                  ...        0 min,  0.577 sec
     gradient                   ...        0 min,  0.274 sec
 * total energy  :  -212.4006126 Eh     change       -0.3455477E-02 Eh
   gradient norm :     0.0211407 Eh/α   predicted    -0.3361883E-02 (  -2.71%)
   displ. norm   :     0.5171498 α      lambda       -0.2849941E-02
   maximum displ.:     0.2134336 α      in ANC's #20, #22, #18, ...

........................................................................
.............................. CYCLE    9 ..............................
........................................................................

 iter      E             dE          RMSdq      gap      omega  full diag
   1   -215.0277913 -0.215028E+03  0.930E-02    4.12       0.0  T
   2   -215.0144441  0.133472E-01  0.205E-01    4.10       1.0  T
   3   -215.0198494 -0.540534E-02  0.181E-01    4.10       1.0  T
   4   -215.0286299 -0.878047E-02  0.561E-02    4.11       1.0  T
   5   -215.0146880  0.139419E-01  0.182E-01    4.05       1.0  T
   6   -215.0272656 -0.125776E-01  0.752E-02    4.12       1.0  T
   7   -215.0280701 -0.804458E-03  0.550E-02    4.10       1.0  T
   8   -215.0284896 -0.419563E-03  0.441E-02    4.11       1.0  T
   9   -215.0291704 -0.680811E-03  0.173E-02    4.11       1.0  T
  10   -215.0291452  0.252682E-04  0.190E-02    4.11       1.0  T
  11   -215.0292812 -0.136068E-03  0.729E-03    4.11       1.2  T
  12   -215.0292875 -0.627043E-05  0.628E-03    4.11       1.4  T
  13   -215.0293045 -0.170476E-04  0.135E-03    4.11       6.4  T
  14   -215.0293052 -0.623963E-06  0.630E-04    4.11      13.7  T
  15   -215.0293053 -0.156061E-06  0.143E-04    4.11      60.4  T
     SCC iter.                  ...        0 min,  0.536 sec
     gradient                   ...        0 min,  0.269 sec
 * total energy  :  -212.4025388 Eh     change       -0.1926228E-02 Eh
   gradient norm :     0.0220115 Eh/α   predicted    -0.1806067E-02 (  -6.24%)
   displ. norm   :     0.6031647 α      lambda       -0.3436483E-02
   maximum displ.:     0.1985019 α      in ANC's #20, #22, #36, ...

........................................................................
.............................. CYCLE   10 ..............................
........................................................................

 iter      E             dE          RMSdq      gap      omega  full diag
   1   -215.0221975 -0.215022E+03  0.191E-01    4.08       0.0  T
   2   -214.9950276  0.271699E-01  0.359E-01    3.48       1.0  T
   3   -214.9573916  0.376360E-01  0.462E-01    3.79       1.0  T
   4   -215.0125705 -0.551789E-01  0.252E-01    4.00       1.0  T
   5   -215.0079635  0.460692E-02  0.263E-01    4.03       1.0  T
   6   -215.0322265 -0.242630E-01  0.118E-01    4.15       1.0  T
   7   -215.0283918  0.383475E-02  0.138E-01    4.08       1.0  T
   8   -215.0023297  0.260621E-01  0.264E-01    4.09       1.0  T
   9   -215.0286939 -0.263642E-01  0.130E-01    4.12       1.0  T
  10   -215.0329303 -0.423645E-02  0.855E-02    4.09       1.0  T
  11   -215.0354307 -0.250034E-02  0.428E-02    4.10       1.0  T
  12   -215.0359427 -0.512076E-03  0.270E-02    4.10       1.0  T
  13   -215.0362694 -0.326674E-03  0.673E-03    4.10       1.3  T
  14   -215.0362645  0.489950E-05  0.752E-03    4.10       1.1  T
  15   -215.0362822 -0.176364E-04  0.415E-03    4.10       2.1  T
  16   -215.0362895 -0.732527E-05  0.155E-03    4.10       5.6  T
  17   -215.0362904 -0.964702E-06  0.525E-04    4.10      16.5  T
  18   -215.0362906 -0.100383E-06  0.257E-04    4.10      33.6  T
     SCC iter.                  ...        0 min,  0.642 sec
     gradient                   ...        0 min,  0.271 sec
 * total energy  :  -212.4035185 Eh     change       -0.9796339E-03 Eh
   gradient norm :     0.0428505 Eh/α   predicted    -0.2343349E-02 ( 139.21%)
   displ. norm   :     0.2641466 α      lambda       -0.2465069E-02
   maximum displ.:     0.0915092 α      in ANC's #9, #33, #28, ...

........................................................................
.............................. CYCLE   11 ..............................
........................................................................

 iter      E             dE          RMSdq      gap      omega  full diag
   1   -215.0284656 -0.215028E+03  0.706E-02    4.12       0.0  T
   2   -214.9841318  0.443338E-01  0.324E-01    4.06       1.0  T
   3   -215.0211635 -0.370317E-01  0.160E-01    4.09       1.0  T
   4   -215.0276283 -0.646480E-02  0.776E-02    4.10       1.0  T
   5   -215.0161745  0.114538E-01  0.178E-01    4.10       1.0  T
   6   -215.0267966 -0.106221E-01  0.807E-02    4.10       1.0  T
   7   -215.0283470 -0.155037E-02  0.630E-02    4.08       1.0  T
   8   -215.0276734  0.673576E-03  0.668E-02    4.09       1.0  T
   9   -215.0294040 -0.173056E-02  0.306E-02    4.10       1.0  T
  10   -215.0297308 -0.326842E-03  0.782E-03    4.10       1.1  T
  11   -215.0297400 -0.912607E-05  0.446E-03    4.10       1.9  T
  12   -215.0297325  0.741644E-05  0.586E-03    4.10       1.5  T
  13   -215.0297436 -0.110634E-04  0.240E-03    4.10       3.6  T
  14   -215.0297458 -0.218354E-05  0.502E-04    4.10      17.2  T
  15   -215.0297459 -0.723845E-07  0.221E-04    4.10      39.0  T
  16   -215.0297459 -0.185098E-07  0.633E-05    4.10     136.4  T
     SCC iter.                  ...        0 min,  0.573 sec
     gradient                   ...        0 min,  0.271 sec
 * total energy  :  -212.4048828 Eh     change       -0.1364371E-02 Eh
   gradient norm :     0.0230054 Eh/α   predicted    -0.1318546E-02 (  -3.36%)
   displ. norm   :     0.3196156 α      lambda       -0.2055516E-02
   maximum displ.:     0.0860587 α      in ANC's #28, #57, #9, ...

........................................................................
.............................. CYCLE   12 ..............................
........................................................................

 iter      E             dE          RMSdq      gap      omega  full diag
   1   -215.0298515 -0.215030E+03  0.768E-02    4.11       0.0  T
   2   -214.9934308  0.364207E-01  0.288E-01    4.09       1.0  T
   3   -214.9909328  0.249800E-02  0.304E-01    4.04       1.0  T
   4   -215.0228397 -0.319070E-01  0.142E-01    4.11       1.0  T
   5   -215.0274092 -0.456949E-02  0.117E-01    4.12       1.0  T
   6   -215.0298101 -0.240087E-02  0.631E-02    4.12       1.0  T
   7   -215.0302043 -0.394197E-03  0.536E-02    4.09       1.0  T
   8   -215.0311926 -0.988319E-03  0.839E-03    4.11       1.0  T
   9   -215.0311878  0.477278E-05  0.733E-03    4.11       1.2  T
  10   -215.0312023 -0.145103E-04  0.326E-03    4.11       2.6  T
  11   -215.0312051 -0.276484E-05  0.174E-03    4.11       5.0  T
  12   -215.0312061 -0.100126E-05  0.881E-04    4.11       9.8  T
  13   -215.0312059  0.169811E-06  0.974E-04    4.11       8.9  T
  14   -215.0312063 -0.375606E-06  0.278E-04    4.11      31.1  T
     SCC iter.                  ...        0 min,  0.502 sec
     gradient                   ...        0 min,  0.255 sec
 * total energy  :  -212.4055077 Eh     change       -0.6248569E-03 Eh
   gradient norm :     0.0312784 Eh/α   predicted    -0.1132751E-02 (  81.28%)
   displ. norm   :     0.2788337 α      lambda       -0.1293171E-02
   maximum displ.:     0.1051231 α      in ANC's #9, #28, #57, ...

........................................................................
.............................. CYCLE   13 ..............................
........................................................................

 iter      E             dE          RMSdq      gap      omega  full diag
   1   -215.0278297 -0.215028E+03  0.624E-02    4.11       0.0  T
   2   -214.9694677  0.583619E-01  0.365E-01    3.87       1.0  T
   3   -214.9984898 -0.290221E-01  0.265E-01    4.02       1.0  T
   4   -215.0285903 -0.301005E-01  0.334E-02    4.11       1.0  T
   5   -215.0276029  0.987421E-03  0.552E-02    4.10       1.0  T
   6   -215.0271339  0.468952E-03  0.692E-02    4.11       1.0  T
   7   -215.0286828 -0.154887E-02  0.176E-02    4.11       1.0  T
   8   -215.0287171 -0.342572E-04  0.137E-02    4.11       1.0  T
   9   -215.0287849 -0.678771E-04  0.602E-03    4.11       1.4  T
  10   -215.0287873 -0.238224E-05  0.533E-03    4.11       1.6  T
  11   -215.0288010 -0.136214E-04  0.818E-04    4.11      10.6  T
  12   -215.0288011 -0.168558E-06  0.407E-04    4.11      21.2  T
  13   -215.0288011  0.284021E-08  0.363E-04    4.11      23.8  T
     SCC iter.                  ...        0 min,  0.480 sec
     gradient                   ...        0 min,  0.272 sec
 * total energy  :  -212.4065079 Eh     change       -0.1000239E-02 Eh
   gradient norm :     0.0149005 Eh/α   predicted    -0.6968580E-03 ( -30.33%)
   displ. norm   :     0.4507273 α      lambda       -0.1364468E-02
   maximum displ.:     0.1722975 α      in ANC's #9, #3, #28, ...

........................................................................
.............................. CYCLE   14 ..............................
........................................................................

 iter      E             dE          RMSdq      gap      omega  full diag
   1   -215.0284591 -0.215028E+03  0.842E-02    4.10       0.0  T
   2   -214.9678550  0.606042E-01  0.378E-01    3.83       1.0  T
   3   -214.9932908 -0.254358E-01  0.297E-01    4.00       1.0  T
   4   -215.0288111 -0.355202E-01  0.618E-02    4.11       1.0  T
   5   -215.0264979  0.231318E-02  0.931E-02    4.09       1.0  T
   6   -215.0252232  0.127466E-02  0.112E-01    4.09       1.0  T
   7   -215.0293755 -0.415227E-02  0.330E-02    4.11       1.0  T
   8   -215.0296930 -0.317488E-03  0.180E-02    4.10       1.0  T
   9   -215.0298379 -0.144964E-03  0.414E-03    4.11       2.1  T
  10   -215.0298215  0.164880E-04  0.673E-03    4.11       1.3  T
  11   -215.0298434 -0.219873E-04  0.971E-04    4.11       8.9  T
  12   -215.0298423  0.111484E-05  0.165E-03    4.11       5.2  T
  13   -215.0298432 -0.828117E-06  0.947E-04    4.11       9.1  T
  14   -215.0298436 -0.402159E-06  0.316E-04    4.11      27.4  T
     SCC iter.                  ...        0 min,  0.513 sec
     gradient                   ...        0 min,  0.271 sec
 * total energy  :  -212.4073752 Eh     change       -0.8672653E-03 Eh
   gradient norm :     0.0142815 Eh/α   predicted    -0.8208362E-03 (  -5.35%)
   displ. norm   :     0.5149621 α      lambda       -0.1008878E-02
   maximum displ.:     0.1758483 α      in ANC's #9, #28, #57, ...

........................................................................
.............................. CYCLE   15 ..............................
........................................................................

 iter      E             dE          RMSdq      gap      omega  full diag
   1   -215.0225326 -0.215023E+03  0.824E-02    4.11       0.0  T
   2   -214.9917801  0.307526E-01  0.266E-01    3.95       1.0  T
   3   -215.0070210 -0.152409E-01  0.196E-01    4.08       1.0  T
   4   -215.0124511 -0.543015E-02  0.153E-01    4.10       1.0  T
   5   -215.0021177  0.103334E-01  0.229E-01    4.06       1.0  T
   6   -215.0200559 -0.179383E-01  0.867E-02    4.11       1.0  T
   7   -215.0197759  0.280009E-03  0.964E-02    4.11       1.0  T
   8   -215.0222151 -0.243918E-02  0.433E-02    4.10       1.0  T
   9   -215.0229393 -0.724203E-03  0.181E-02    4.11       1.0  T
  10   -215.0230378 -0.985386E-04  0.102E-02    4.10       1.0  T
  11   -215.0230503 -0.124323E-04  0.822E-03    4.10       1.1  T
  12   -215.0230703 -0.200226E-04  0.412E-03    4.10       2.1  T
  13   -215.0230766 -0.633218E-05  0.147E-03    4.10       5.9  T
  14   -215.0230769 -0.288367E-06  0.121E-03    4.10       7.1  T
  15   -215.0230776 -0.665627E-06  0.265E-04    4.10      32.6  T
  16   -215.0230776 -0.162481E-07  0.168E-04    4.10      51.4  T
     SCC iter.                  ...        0 min,  0.582 sec
     gradient                   ...        0 min,  0.271 sec
 * total energy  :  -212.4078879 Eh     change       -0.5126480E-03 Eh
   gradient norm :     0.0230651 Eh/α   predicted    -0.6382138E-03 (  24.49%)
   displ. norm   :     0.3091428 α      lambda       -0.8303299E-03
   maximum displ.:     0.1050238 α      in ANC's #9, #12, #15, ...

........................................................................
.............................. CYCLE   16 ..............................
........................................................................

 iter      E             dE          RMSdq      gap      omega  full diag
   1   -215.0294583 -0.215029E+03  0.438E-02    4.11       0.0  T
   2   -215.0194710  0.998737E-02  0.151E-01    4.07       1.0  T
   3   -215.0254512 -0.598019E-02  0.996E-02    4.10       1.0  T
   4   -215.0275047 -0.205353E-02  0.735E-02    4.10       1.0  T
   5   -215.0249409  0.256378E-02  0.101E-01    4.11       1.0  T
   6   -215.0280680 -0.312706E-02  0.588E-02    4.11       1.0  T
   7   -215.0293772 -0.130919E-02  0.240E-02    4.11       1.0  T
   8   -215.0294320 -0.548004E-04  0.160E-02    4.10       1.0  T
   9   -215.0295113 -0.793624E-04  0.886E-03    4.11       1.0  T
  10   -215.0295338 -0.224827E-04  0.375E-03    4.11       2.3  T
  11   -215.0295379 -0.405611E-05  0.939E-04    4.11       9.2  T
  12   -215.0295376  0.250175E-06  0.115E-03    4.11       7.5  T
  13   -215.0295382 -0.607882E-06  0.180E-04    4.11      47.9  T
  14   -215.0295382 -0.708937E-08  0.818E-05    4.11     105.6  T
     SCC iter.                  ...        0 min,  0.505 sec
     gradient                   ...        0 min,  0.268 sec
 * total energy  :  -212.4084726 Eh     change       -0.5847487E-03 Eh
   gradient norm :     0.0134119 Eh/α   predicted    -0.4548429E-03 ( -22.22%)
   displ. norm   :     0.4652721 α      lambda       -0.1051691E-02
   maximum displ.:     0.1453521 α      in ANC's #9, #15, #12, ...

........................................................................
.............................. CYCLE   17 ..............................
........................................................................

 iter      E             dE          RMSdq      gap      omega  full diag
   1   -215.0318942 -0.215032E+03  0.798E-02    4.11       0.0  T
   2   -214.9925251  0.393692E-01  0.311E-01    4.01       1.0  T
   3   -215.0208733 -0.283482E-01  0.164E-01    4.11       1.0  T
   4   -215.0158824  0.499088E-02  0.192E-01    4.06       1.0  T
   5   -215.0191933 -0.331094E-02  0.186E-01    4.09       1.0  T
   6   -215.0267864 -0.759309E-02  0.111E-01    4.11       1.0  T
   7   -215.0293228 -0.253633E-02  0.991E-02    4.11       1.0  T
   8   -215.0323950 -0.307220E-02  0.236E-02    4.11       1.0  T
   9   -215.0325243 -0.129319E-03  0.174E-02    4.11       1.0  T
  10   -215.0326378 -0.113471E-03  0.726E-03    4.11       1.2  T
  11   -215.0326509 -0.131372E-04  0.363E-03    4.11       2.4  T
  12   -215.0326542 -0.334244E-05  0.212E-03    4.11       4.1  T
  13   -215.0326548 -0.610035E-06  0.132E-03    4.11       6.5  T
  14   -215.0326552 -0.362732E-06  0.880E-04    4.11       9.8  T
  15   -215.0326555 -0.328631E-06  0.173E-04    4.11      49.8  T
     SCC iter.                  ...        0 min,  0.540 sec
     gradient                   ...        0 min,  0.270 sec
 * total energy  :  -212.4089226 Eh     change       -0.4500023E-03 Eh
   gradient norm :     0.0182361 Eh/α   predicted    -0.6396858E-03 (  42.15%)
   displ. norm   :     0.3552615 α      lambda       -0.7578799E-03
   maximum displ.:     0.1243329 α      in ANC's #9, #57, #14, ...

........................................................................
.............................. CYCLE   18 ..............................
........................................................................

 iter      E             dE          RMSdq      gap      omega  full diag
   1   -215.0335903 -0.215034E+03  0.564E-02    4.11       0.0  T
   2   -215.0210646  0.125256E-01  0.175E-01    4.05       1.0  T
   3   -215.0271424 -0.607771E-02  0.121E-01    4.10       1.0  T
   4   -215.0229185  0.422384E-02  0.164E-01    4.08       1.0  T
   5   -215.0254073 -0.248881E-02  0.141E-01    4.10       1.0  T
   6   -215.0323228 -0.691544E-02  0.652E-02    4.12       1.0  T
   7   -215.0330525 -0.729725E-03  0.449E-02    4.11       1.0  T
   8   -215.0336664 -0.613945E-03  0.182E-02    4.11       1.0  T
   9   -215.0337673 -0.100880E-03  0.913E-03    4.11       1.0  T
  10   -215.0337945 -0.271781E-04  0.357E-03    4.11       2.4  T
  11   -215.0337968 -0.226776E-05  0.214E-03    4.11       4.0  T
  12   -215.0337983 -0.154584E-05  0.112E-03    4.11       7.7  T
  13   -215.0337988 -0.460830E-06  0.404E-04    4.11      21.4  T
  14   -215.0337988 -0.419162E-07  0.188E-04    4.11      46.0  T
     SCC iter.                  ...        0 min,  0.506 sec
     gradient                   ...        0 min,  0.271 sec
 * total energy  :  -212.4093845 Eh     change       -0.4619238E-03 Eh
   gradient norm :     0.0130769 Eh/α   predicted    -0.4267708E-03 (  -7.61%)
   displ. norm   :     0.4305432 α      lambda       -0.7879255E-03
   maximum displ.:     0.1401061 α      in ANC's #9, #14, #13, ...

........................................................................
.............................. CYCLE   19 ..............................
........................................................................

 iter      E             dE          RMSdq      gap      omega  full diag
   1   -215.0323099 -0.215032E+03  0.708E-02    4.11       0.0  T
   2   -214.9942515  0.380585E-01  0.321E-01    4.01       1.0  T
   3   -215.0307310 -0.364795E-01  0.769E-02    4.09       1.0  T
   4   -215.0239809  0.675007E-02  0.153E-01    4.09       1.0  T
   5   -215.0311048 -0.712389E-02  0.729E-02    4.13       1.0  T
   6   -215.0293553  0.174952E-02  0.893E-02    4.09       1.0  T
   7   -215.0324938 -0.313856E-02  0.237E-02    4.11       1.0  T
   8   -215.0321030  0.390788E-03  0.376E-02    4.10       1.0  T
   9   -215.0326587 -0.555662E-03  0.133E-02    4.11       1.0  T
  10   -215.0327022 -0.435234E-04  0.669E-03    4.11       1.3  T
  11   -215.0327158 -0.136301E-04  0.324E-03    4.10       2.7  T
  12   -215.0327195 -0.364083E-05  0.770E-04    4.10      11.2  T
  13   -215.0327197 -0.169880E-06  0.440E-04    4.10      19.7  T
  14   -215.0327197 -0.403293E-07  0.211E-04    4.10      41.0  T
     SCC iter.                  ...        0 min,  0.504 sec
     gradient                   ...        0 min,  0.272 sec
 * total energy  :  -212.4096004 Eh     change       -0.2158717E-03 Eh
   gradient norm :     0.0196503 Eh/α   predicted    -0.4669946E-03 ( 116.33%)
   displ. norm   :     0.2630653 α      lambda       -0.6266126E-03
   maximum displ.:     0.0855852 α      in ANC's #9, #14, #57, ...

........................................................................
.............................. CYCLE   20 ..............................
........................................................................

 iter      E             dE          RMSdq      gap      omega  full diag
   1   -215.0309861 -0.215031E+03  0.546E-02    4.10       0.0  T
   2   -215.0095293  0.214568E-01  0.226E-01    3.96       1.0  T
   3   -215.0218866 -0.123573E-01  0.148E-01    4.09       1.0  T
   4   -215.0311456 -0.925893E-02  0.374E-02    4.10       1.0  T
   5   -215.0306474  0.498155E-03  0.524E-02    4.10       1.0  T
   6   -215.0310765 -0.429096E-03  0.320E-02    4.10       1.0  T
   7   -215.0313195 -0.243014E-03  0.287E-02    4.11       1.0  T
   8   -215.0315330 -0.213480E-03  0.989E-03    4.11       1.0  T
   9   -215.0315632 -0.301628E-04  0.198E-03    4.10       4.4  T
  10   -215.0315629  0.300637E-06  0.182E-03    4.10       4.8  T
  11   -215.0315633 -0.463983E-06  0.149E-03    4.10       5.8  T
  12   -215.0315641 -0.750573E-06  0.760E-04    4.10      11.4  T
  13   -215.0315643 -0.226146E-06  0.254E-04    4.10      34.0  T
     SCC iter.                  ...        0 min,  0.470 sec
     gradient                   ...        0 min,  0.270 sec
 * total energy  :  -212.4100166 Eh     change       -0.4162472E-03 Eh
   gradient norm :     0.0125547 Eh/α   predicted    -0.3349899E-03 ( -19.52%)
   displ. norm   :     0.3347599 α      lambda       -0.8301604E-03
   maximum displ.:     0.1448583 α      in ANC's #10, #14, #26, ...
 * RMSD in coord.:     0.5151820 α      energy gain  -0.2194904E+00 Eh

generating ANC from model Hessian ...
Using Lindh-Hessian (1995)
 Shifting diagonal of input Hessian by   2.375239472180719E-002
 Lowest  eigenvalues of input Hessian
    0.010000   -0.000000   -0.000000   -0.000000   -0.000000   -0.000000
   -0.000000   -0.000000   -0.000000   -0.000000   -0.000000   -0.000000
   -0.000000   -0.000000   -0.000000   -0.000000   -0.000000   -0.000000
 Highest eigenvalues
    2.248598    2.273355    2.276106    2.405704    2.433453    2.443718
 

........................................................................
.............................. CYCLE   21 ..............................
........................................................................

 iter      E             dE          RMSdq      gap      omega  full diag
   1   -215.0443323 -0.215044E+03  0.602E-02    4.10       0.0  T
   2   -215.0103574  0.339749E-01  0.280E-01    3.99       1.0  T
   3   -215.0354179 -0.250605E-01  0.147E-01    4.10       1.0  T
   4   -215.0375146 -0.209670E-02  0.127E-01    4.11       1.0  T
   5   -215.0421250 -0.461036E-02  0.901E-02    4.09       1.0  T
   6   -215.0440829 -0.195799E-02  0.404E-02    4.09       1.0  T
   7   -215.0439176  0.165379E-03  0.492E-02    4.11       1.0  T
   8   -215.0445030 -0.585395E-03  0.234E-02    4.11       1.0  T
   9   -215.0446611 -0.158137E-03  0.774E-03    4.11       1.1  T
  10   -215.0446849 -0.238163E-04  0.290E-03    4.11       3.0  T
  11   -215.0446866 -0.166761E-05  0.193E-03    4.11       4.5  T
  12   -215.0446872 -0.578222E-06  0.144E-03    4.11       6.0  T
  13   -215.0446881 -0.972439E-06  0.231E-04    4.11      37.4  T
  14   -215.0446881 -0.321137E-08  0.174E-04    4.11      49.6  T
     SCC iter.                  ...        0 min,  0.506 sec
     gradient                   ...        0 min,  0.271 sec
 * total energy  :  -212.4098987 Eh     change        0.1179678E-03 Eh
   gradient norm :     0.0268541 Eh/α   predicted     0.0000000E+00 (-100.00%)
   displ. norm   :     0.0635618 α      lambda       -0.8763089E-03
   maximum displ.:     0.0187814 α      in ANC's #9, #236, #254, ...

........................................................................
.............................. CYCLE   22 ..............................
........................................................................

 iter      E             dE          RMSdq      gap      omega  full diag
   1   -215.0368232 -0.215037E+03  0.224E-02    4.11       0.0  T
   2   -215.0308524  0.597078E-02  0.119E-01    4.10       1.0  T
   3   -215.0367705 -0.591811E-02  0.192E-02    4.10       1.0  T
   4   -215.0346647  0.210582E-02  0.699E-02    4.11       1.0  T
   5   -215.0363663 -0.170159E-02  0.345E-02    4.11       1.0  T
   6   -215.0367005 -0.334166E-03  0.236E-02    4.11       1.0  T
   7   -215.0368474 -0.146967E-03  0.955E-03    4.10       1.0  T
   8   -215.0368720 -0.245670E-04  0.381E-03    4.11       2.3  T
   9   -215.0368762 -0.418328E-05  0.242E-03    4.11       3.6  T
  10   -215.0368771 -0.947830E-06  0.158E-03    4.11       5.5  T
  11   -215.0368781 -0.941925E-06  0.659E-04    4.11      13.1  T
  12   -215.0368782 -0.182640E-06  0.924E-05    4.11      93.5  T
     SCC iter.                  ...        0 min,  0.430 sec
     gradient                   ...        0 min,  0.268 sec
 * total energy  :  -212.4104533 Eh     change       -0.5546253E-03 Eh
   gradient norm :     0.0059742 Eh/α   predicted    -0.4399264E-03 ( -20.68%)
   displ. norm   :     0.0707284 α      lambda       -0.1827364E-03
   maximum displ.:     0.0266411 α      in ANC's #9, #22, #27, ...

........................................................................
.............................. CYCLE   23 ..............................
........................................................................

 iter      E             dE          RMSdq      gap      omega  full diag
   1   -215.0343220 -0.215034E+03  0.165E-02    4.11       0.0  T
   2   -215.0294174  0.490453E-02  0.106E-01    4.10       1.0  T
   3   -215.0342514 -0.483399E-02  0.173E-02    4.10       1.0  T
   4   -215.0318195  0.243196E-02  0.737E-02    4.11       1.0  T
   5   -215.0342163 -0.239686E-02  0.191E-02    4.11       1.0  T
   6   -215.0342443 -0.279895E-04  0.185E-02    4.11       1.0  T
   7   -215.0343455 -0.101161E-03  0.586E-03    4.11       1.5  T
   8   -215.0343495 -0.405013E-05  0.427E-03    4.11       2.0  T
   9   -215.0343556 -0.603577E-05  0.114E-03    4.11       7.6  T
  10   -215.0343559 -0.347598E-06  0.732E-04    4.11      11.8  T
  11   -215.0343561 -0.191648E-06  0.295E-04    4.11      29.2  T
     SCC iter.                  ...        0 min,  0.397 sec
     gradient                   ...        0 min,  0.270 sec
 * total energy  :  -212.4105846 Eh     change       -0.1313052E-03 Eh
   gradient norm :     0.0034054 Eh/α   predicted    -0.9187172E-04 ( -30.03%)
   displ. norm   :     0.1254345 α      lambda       -0.1735663E-03
   maximum displ.:     0.0499745 α      in ANC's #9, #27, #22, ...

........................................................................
.............................. CYCLE   24 ..............................
........................................................................

 iter      E             dE          RMSdq      gap      omega  full diag
   1   -215.0326540 -0.215033E+03  0.282E-02    4.11       0.0  T
   2   -215.0168501  0.158039E-01  0.188E-01    4.07       1.0  T
   3   -215.0326151 -0.157650E-01  0.229E-02    4.10       1.0  T
   4   -215.0302803  0.233483E-02  0.743E-02    4.11       1.0  T
   5   -215.0305898 -0.309438E-03  0.702E-02    4.10       1.0  T
   6   -215.0325005 -0.191073E-02  0.305E-02    4.11       1.0  T
   7   -215.0327515 -0.251046E-03  0.837E-03    4.11       1.0  T
   8   -215.0327576 -0.603846E-05  0.612E-03    4.10       1.4  T
   9   -215.0327715 -0.139190E-04  0.192E-03    4.11       4.5  T
  10   -215.0327728 -0.130807E-05  0.964E-04    4.11       9.0  T
  11   -215.0327732 -0.367060E-06  0.263E-04    4.11      32.8  T
  12   -215.0327732 -0.755441E-08  0.176E-04    4.11      49.1  T
     SCC iter.                  ...        0 min,  0.434 sec
     gradient                   ...        0 min,  0.272 sec
 * total energy  :  -212.4107201 Eh     change       -0.1354824E-03 Eh
   gradient norm :     0.0071444 Eh/α   predicted    -0.8816632E-04 ( -34.92%)
   displ. norm   :     0.2468123 α      lambda       -0.2690721E-03
   maximum displ.:     0.1021749 α      in ANC's #9, #27, #22, ...

........................................................................
.............................. CYCLE   25 ..............................
........................................................................

 iter      E             dE          RMSdq      gap      omega  full diag
   1   -215.0308525 -0.215031E+03  0.548E-02    4.11       0.0  T
   2   -214.9932873  0.375653E-01  0.292E-01    4.00       1.0  T
   3   -215.0301549 -0.368676E-01  0.592E-02    4.10       1.0  T
   4   -215.0160900  0.140648E-01  0.190E-01    4.06       1.0  T
   5   -215.0239527 -0.786265E-02  0.128E-01    4.11       1.0  T
   6   -215.0306041 -0.665137E-02  0.479E-02    4.11       1.0  T
   7   -215.0312480 -0.643943E-03  0.151E-02    4.11       1.0  T
   8   -215.0312388  0.919670E-05  0.132E-02    4.10       1.0  T
   9   -215.0313111 -0.722687E-04  0.451E-03    4.11       1.9  T
  10   -215.0313176 -0.650116E-05  0.267E-03    4.10       3.2  T
  11   -215.0313205 -0.298114E-05  0.535E-04    4.10      16.1  T
  12   -215.0313206 -0.591149E-08  0.386E-04    4.10      22.4  T
  13   -215.0313206 -0.396410E-07  0.244E-04    4.10      35.4  T
     SCC iter.                  ...        0 min,  0.480 sec
     gradient                   ...        0 min,  0.270 sec
 * total energy  :  -212.4109174 Eh     change       -0.1973059E-03 Eh
   gradient norm :     0.0097643 Eh/α   predicted    -0.1429079E-03 ( -27.57%)
   displ. norm   :     0.2703272 α      lambda       -0.2518918E-03
   maximum displ.:     0.1181308 α      in ANC's #9, #27, #22, ...

........................................................................
.............................. CYCLE   26 ..............................
........................................................................

 iter      E             dE          RMSdq      gap      omega  full diag
   1   -215.0308713 -0.215031E+03  0.581E-02    4.11       0.0  T
   2   -214.9911733  0.396980E-01  0.300E-01    4.00       1.0  T
   3   -215.0304544 -0.392811E-01  0.548E-02    4.10       1.0  T
   4   -215.0129308  0.175236E-01  0.210E-01    4.06       1.0  T
   5   -215.0218223 -0.889158E-02  0.145E-01    4.11       1.0  T
   6   -215.0309790 -0.915664E-02  0.336E-02    4.11       1.0  T
   7   -215.0312390 -0.260029E-03  0.190E-02    4.10       1.0  T
   8   -215.0312906 -0.516160E-04  0.129E-02    4.10       1.0  T
   9   -215.0313655 -0.748853E-04  0.356E-03    4.10       2.4  T
  10   -215.0313677 -0.223283E-05  0.270E-03    4.10       3.2  T
  11   -215.0313708 -0.302769E-05  0.561E-04    4.10      15.4  T
  12   -215.0313707  0.966985E-07  0.600E-04    4.10      14.4  T
  13   -215.0313708 -0.141783E-06  0.245E-04    4.10      35.2  T
     SCC iter.                  ...        0 min,  0.465 sec
     gradient                   ...        0 min,  0.269 sec
 * total energy  :  -212.4111084 Eh     change       -0.1910259E-03 Eh
   gradient norm :     0.0089086 Eh/α   predicted    -0.1352178E-03 ( -29.21%)
   displ. norm   :     0.3007205 α      lambda       -0.2951525E-03
   maximum displ.:     0.1400375 α      in ANC's #9, #27, #22, ...

........................................................................
.............................. CYCLE   27 ..............................
........................................................................

 iter      E             dE          RMSdq      gap      omega  full diag
   1   -215.0331381 -0.215033E+03  0.619E-02    4.11       0.0  T
   2   -214.9929783  0.401598E-01  0.301E-01    4.00       1.0  T
   3   -215.0328282 -0.398498E-01  0.521E-02    4.10       1.0  T
   4   -215.0231332  0.969494E-02  0.165E-01    4.08       1.0  T
   5   -215.0202981  0.283514E-02  0.171E-01    4.12       1.0  T
   6   -215.0333547 -0.130566E-01  0.250E-02    4.11       1.0  T
   7   -215.0334380 -0.832684E-04  0.190E-02    4.10       1.0  T
   8   -215.0335873 -0.149318E-03  0.768E-03    4.10       1.1  T
   9   -215.0336084 -0.211335E-04  0.341E-03    4.10       2.5  T
  10   -215.0336116 -0.316325E-05  0.248E-03    4.10       3.5  T
  11   -215.0336131 -0.150902E-05  0.809E-04    4.10      10.7  T
  12   -215.0336129  0.162021E-06  0.811E-04    4.10      10.7  T
  13   -215.0336132 -0.274144E-06  0.261E-04    4.10      33.1  T
     SCC iter.                  ...        0 min,  0.467 sec
     gradient                   ...        0 min,  0.272 sec
 * total energy  :  -212.4113337 Eh     change       -0.2253105E-03 Eh
   gradient norm :     0.0051980 Eh/α   predicted    -0.1609235E-03 ( -28.58%)
   displ. norm   :     0.3398720 α      lambda       -0.2921321E-03
   maximum displ.:     0.1651009 α      in ANC's #9, #27, #22, ...

........................................................................
.............................. CYCLE   28 ..............................
........................................................................

 iter      E             dE          RMSdq      gap      omega  full diag
   1   -215.0353408 -0.215035E+03  0.677E-02    4.11       0.0  T
   2   -214.9950130  0.403278E-01  0.302E-01    4.00       1.0  T
   3   -215.0343202 -0.393071E-01  0.662E-02    4.10       1.0  T
   4   -215.0156848  0.186353E-01  0.214E-01    4.12       1.0  T
   5   -215.0324208 -0.167359E-01  0.935E-02    4.10       1.0  T
   6   -215.0356657 -0.324489E-02  0.211E-02    4.11       1.0  T
   7   -215.0355662  0.994543E-04  0.217E-02    4.10       1.0  T
   8   -215.0357004 -0.134225E-03  0.152E-02    4.10       1.0  T
   9   -215.0357405 -0.400491E-04  0.100E-02    4.10       1.0  T
  10   -215.0357809 -0.404454E-04  0.261E-03    4.10       3.3  T
  11   -215.0357789  0.202689E-05  0.318E-03    4.10       2.7  T
  12   -215.0357833 -0.436134E-05  0.708E-04    4.10      12.2  T
  13   -215.0357834 -0.184216E-06  0.194E-04    4.10      44.6  T
  14   -215.0357834 -0.251134E-09  0.175E-04    4.10      49.3  T
     SCC iter.                  ...        0 min,  0.507 sec
     gradient                   ...        0 min,  0.270 sec
 * total energy  :  -212.4115649 Eh     change       -0.2312139E-03 Eh
   gradient norm :     0.0045467 Eh/α   predicted    -0.1629703E-03 ( -29.52%)
   displ. norm   :     0.4541035 α      lambda       -0.3366999E-03
   maximum displ.:     0.2251097 α      in ANC's #9, #27, #22, ...

........................................................................
.............................. CYCLE   29 ..............................
........................................................................

 iter      E             dE          RMSdq      gap      omega  full diag
   1   -215.0349615 -0.215035E+03  0.872E-02    4.11       0.0  T
   2   -214.9906718  0.442898E-01  0.318E-01    3.98       1.0  T
   3   -215.0296346 -0.389628E-01  0.123E-01    4.09       1.0  T
   4   -215.0120076  0.176270E-01  0.233E-01    4.10       1.0  T
   5   -215.0057643  0.624329E-02  0.274E-01    4.05       1.0  T
   6   -215.0340771 -0.283128E-01  0.610E-02    4.11       1.0  T
   7   -215.0347711 -0.694070E-03  0.435E-02    4.10       1.0  T
   8   -215.0350641 -0.292995E-03  0.323E-02    4.10       1.0  T
   9   -215.0354330 -0.368914E-03  0.137E-02    4.10       1.0  T
  10   -215.0354842 -0.511969E-04  0.700E-03    4.10       1.2  T
  11   -215.0354901 -0.581392E-05  0.455E-03    4.10       1.9  T
  12   -215.0354961 -0.604479E-05  0.209E-03    4.10       4.1  T
  13   -215.0354967 -0.584093E-06  0.154E-03    4.10       5.6  T
  14   -215.0354972 -0.506069E-06  0.116E-03    4.10       7.4  T
  15   -215.0354977 -0.560186E-06  0.280E-04    4.10      30.9  T
  16   -215.0354978 -0.272461E-07  0.124E-04    4.10      69.5  T
     SCC iter.                  ...        0 min,  0.576 sec
     gradient                   ...        0 min,  0.269 sec
 * total energy  :  -212.4118317 Eh     change       -0.2667499E-03 Eh
   gradient norm :     0.0063749 Eh/α   predicted    -0.2030656E-03 ( -23.87%)
   displ. norm   :     0.4328790 α      lambda       -0.4092504E-03
   maximum displ.:     0.2216763 α      in ANC's #9, #27, #8, ...

........................................................................
.............................. CYCLE   30 ..............................
........................................................................

 iter      E             dE          RMSdq      gap      omega  full diag
   1   -215.0386301 -0.215039E+03  0.770E-02    4.11       0.0  T
   2   -215.0259250  0.127051E-01  0.181E-01    4.05       1.0  T
   3   -215.0264537 -0.528681E-03  0.170E-01    4.10       1.0  T
   4   -215.0251398  0.131385E-02  0.179E-01    4.06       1.0  T
   5   -215.0353545 -0.102147E-01  0.101E-01    4.11       1.0  T
   6   -215.0336625  0.169194E-02  0.107E-01    4.11       1.0  T
   7   -215.0384237 -0.476120E-02  0.306E-02    4.10       1.0  T
   8   -215.0387272 -0.303467E-03  0.159E-02    4.10       1.0  T
   9   -215.0388357 -0.108461E-03  0.530E-03    4.10       1.6  T
  10   -215.0388441 -0.839927E-05  0.255E-03    4.10       3.4  T
  11   -215.0388447 -0.596061E-06  0.206E-03    4.10       4.2  T
  12   -215.0388463 -0.164093E-05  0.878E-04    4.10       9.8  T
  13   -215.0388466 -0.320417E-06  0.187E-04    4.10      46.1  T
  14   -215.0388466 -0.125096E-07  0.583E-05    4.10     148.2  T
     SCC iter.                  ...        0 min,  0.503 sec
     gradient                   ...        0 min,  0.268 sec
 * total energy  :  -212.4121038 Eh     change       -0.2720623E-03 Eh
   gradient norm :     0.0095274 Eh/α   predicted    -0.2430039E-03 ( -10.68%)
   displ. norm   :     0.5660666 α      lambda       -0.3649952E-03
   maximum displ.:     0.2903682 α      in ANC's #9, #27, #22, ...

........................................................................
.............................. CYCLE   31 ..............................
........................................................................

 iter      E             dE          RMSdq      gap      omega  full diag
   1   -215.0284800 -0.215028E+03  0.106E-01    4.11       0.0  T
   2   -215.0017754  0.267046E-01  0.257E-01    3.96       1.0  T
   3   -215.0229027 -0.211272E-01  0.129E-01    4.08       1.0  T
   4   -215.0162989  0.660379E-02  0.189E-01    4.10       1.0  T
   5   -215.0262953 -0.999645E-02  0.887E-02    4.11       1.0  T
   6   -215.0231852  0.311010E-02  0.118E-01    4.11       1.0  T
   7   -215.0268384 -0.365318E-02  0.847E-02    4.10       1.0  T
   8   -215.0286961 -0.185765E-02  0.362E-02    4.10       1.0  T
   9   -215.0289834 -0.287327E-03  0.197E-02    4.10       1.0  T
  10   -215.0290477 -0.643432E-04  0.148E-02    4.10       1.0  T
  11   -215.0291068 -0.590815E-04  0.354E-03    4.10       2.4  T
  12   -215.0291084 -0.156425E-05  0.372E-03    4.10       2.3  T
  13   -215.0291117 -0.334730E-05  0.462E-04    4.10      18.7  T
  14   -215.0291116  0.116487E-06  0.648E-04    4.10      13.3  T
  15   -215.0291115  0.131264E-06  0.864E-04    4.10      10.0  T
     SCC iter.                  ...        0 min,  0.506 sec
     gradient                   ...        0 min,  0.245 sec
 * total energy  :  -212.4122143 Eh     change       -0.1105473E-03 Eh
   gradient norm :     0.0159856 Eh/α   predicted    -0.2410407E-03 ( 118.04%)
   displ. norm   :     0.1381326 α      lambda       -0.5211344E-03
   maximum displ.:     0.0502578 α      in ANC's #59, #39, #33, ...

........................................................................
.............................. CYCLE   32 ..............................
........................................................................

 iter      E             dE          RMSdq      gap      omega  full diag
   1   -215.0339847 -0.215034E+03  0.458E-02    4.10       0.0  T
   2   -214.9798422  0.541425E-01  0.363E-01    4.01       1.0  T
   3   -215.0182938 -0.384516E-01  0.188E-01    4.10       1.0  T
   4   -215.0339151 -0.156212E-01  0.438E-02    4.10       1.0  T
   5   -215.0344097 -0.494596E-03  0.280E-02    4.10       1.0  T
   6   -215.0342956  0.114024E-03  0.340E-02    4.10       1.0  T
   7   -215.0344649 -0.169300E-03  0.225E-02    4.10       1.0  T
   8   -215.0346174 -0.152496E-03  0.101E-02    4.10       1.0  T
   9   -215.0346596 -0.421897E-04  0.209E-03    4.10       4.1  T
  10   -215.0346609 -0.133472E-05  0.123E-03    4.10       7.0  T
  11   -215.0346615 -0.596798E-06  0.354E-04    4.10      24.4  T
  12   -215.0346614  0.105567E-06  0.551E-04    4.10      15.7  T
     SCC iter.                  ...        0 min,  0.431 sec
     gradient                   ...        0 min,  0.271 sec
 * total energy  :  -212.4125348 Eh     change       -0.3205376E-03 Eh
   gradient norm :     0.0060839 Eh/α   predicted    -0.2655786E-03 ( -17.15%)
   displ. norm   :     0.3119540 α      lambda       -0.2629620E-03
   maximum displ.:     0.1675222 α      in ANC's #9, #8, #27, ...

........................................................................
.............................. CYCLE   33 ..............................
........................................................................

 iter      E             dE          RMSdq      gap      omega  full diag
   1   -215.0334454 -0.215033E+03  0.596E-02    4.11       0.0  T
   2   -214.9601157  0.733297E-01  0.416E-01    3.94       1.0  T
   3   -215.0316886 -0.715729E-01  0.751E-02    4.10       1.0  T
   4   -215.0221325  0.955605E-02  0.176E-01    4.07       1.0  T
   5   -215.0303938 -0.826130E-02  0.990E-02    4.11       1.0  T
   6   -215.0333609 -0.296709E-02  0.392E-02    4.11       1.0  T
   7   -215.0330691  0.291837E-03  0.440E-02    4.10       1.0  T
   8   -215.0338193 -0.750229E-03  0.184E-02    4.10       1.0  T
   9   -215.0339149 -0.955821E-04  0.697E-03    4.10       1.2  T
  10   -215.0339296 -0.147381E-04  0.232E-03    4.10       3.7  T
  11   -215.0339309 -0.125007E-05  0.102E-03    4.10       8.5  T
  12   -215.0339311 -0.182814E-06  0.689E-04    4.10      12.5  T
  13   -215.0339313 -0.205762E-06  0.187E-04    4.10      46.3  T
     SCC iter.                  ...        0 min,  0.467 sec
     gradient                   ...        0 min,  0.269 sec
 * total energy  :  -212.4127481 Eh     change       -0.2132348E-03 Eh
   gradient norm :     0.0058333 Eh/α   predicted    -0.1442782E-03 ( -32.34%)
   displ. norm   :     0.4640170 α      lambda       -0.3772177E-03
   maximum displ.:     0.2567484 α      in ANC's #9, #8, #10, ...

........................................................................
.............................. CYCLE   34 ..............................
........................................................................

 iter      E             dE          RMSdq      gap      omega  full diag
   1   -215.0318231 -0.215032E+03  0.872E-02    4.10       0.0  T
   2   -214.9484837  0.833393E-01  0.451E-01    3.83       1.0  T
   3   -215.0244996 -0.760159E-01  0.142E-01    4.07       1.0  T
   4   -215.0263402 -0.184056E-02  0.124E-01    4.09       1.0  T
   5   -214.9979269  0.284132E-01  0.312E-01    4.03       1.0  T
   6   -215.0307557 -0.328288E-01  0.792E-02    4.11       1.0  T
   7   -215.0320039 -0.124819E-02  0.499E-02    4.11       1.0  T
   8   -215.0324271 -0.423210E-03  0.301E-02    4.10       1.0  T
   9   -215.0327742 -0.347132E-03  0.123E-02    4.10       1.0  T
  10   -215.0328161 -0.418322E-04  0.687E-03    4.10       1.3  T
  11   -215.0328354 -0.192880E-04  0.237E-03    4.10       3.6  T
  12   -215.0328357 -0.310184E-06  0.221E-03    4.10       3.9  T
  13   -215.0328377 -0.204234E-05  0.432E-04    4.10      20.0  T
  14   -215.0328378 -0.621568E-07  0.189E-04    4.10      45.6  T
  15   -215.0328378 -0.137418E-07  0.429E-05    4.10     201.4  T
     SCC iter.                  ...        0 min,  0.541 sec
     gradient                   ...        0 min,  0.270 sec
 * total energy  :  -212.4130176 Eh     change       -0.2694721E-03 Eh
   gradient norm :     0.0066012 Eh/α   predicted    -0.2292251E-03 ( -14.94%)
   displ. norm   :     0.3617356 α      lambda       -0.2576612E-03
   maximum displ.:     0.2070580 α      in ANC's #9, #8, #10, ...

........................................................................
.............................. CYCLE   35 ..............................
........................................................................

 iter      E             dE          RMSdq      gap      omega  full diag
   1   -215.0326069 -0.215033E+03  0.605E-02    4.10       0.0  T
   2   -214.9643472  0.682597E-01  0.400E-01    3.92       1.0  T
   3   -215.0295896 -0.652424E-01  0.936E-02    4.09       1.0  T
   4   -215.0252407  0.434896E-02  0.131E-01    4.09       1.0  T
   5   -215.0249699  0.270821E-03  0.157E-01    4.09       1.0  T
   6   -215.0318848 -0.691492E-02  0.539E-02    4.11       1.0  T
   7   -215.0325298 -0.645041E-03  0.372E-02    4.10       1.0  T
   8   -215.0329760 -0.446145E-03  0.148E-02    4.10       1.0  T
   9   -215.0330520 -0.760514E-04  0.521E-03    4.10       1.7  T
  10   -215.0330618 -0.976956E-05  0.211E-03    4.10       4.1  T
  11   -215.0330630 -0.122214E-05  0.949E-04    4.10       9.1  T
  12   -215.0330631 -0.561733E-07  0.831E-04    4.10      10.4  T
  13   -215.0330634 -0.305313E-06  0.172E-04    4.10      50.3  T
     SCC iter.                  ...        0 min,  0.466 sec
     gradient                   ...        0 min,  0.268 sec
 * total energy  :  -212.4131898 Eh     change       -0.1722830E-03 Eh
   gradient norm :     0.0070455 Eh/α   predicted    -0.1456913E-03 ( -15.43%)
   displ. norm   :     0.3817942 α      lambda       -0.2468458E-03
   maximum displ.:     0.2209672 α      in ANC's #9, #8, #10, ...

........................................................................
.............................. CYCLE   36 ..............................
........................................................................

 iter      E             dE          RMSdq      gap      omega  full diag
   1   -215.0337095 -0.215034E+03  0.598E-02    4.10       0.0  T
   2   -214.9940393  0.396702E-01  0.308E-01    3.96       1.0  T
   3   -215.0255546 -0.315153E-01  0.140E-01    4.08       1.0  T
   4   -215.0302857 -0.473112E-02  0.933E-02    4.09       1.0  T
   5   -215.0156266  0.146591E-01  0.233E-01    4.06       1.0  T
   6   -215.0336586 -0.180320E-01  0.339E-02    4.11       1.0  T
   7   -215.0339701 -0.311495E-03  0.135E-02    4.09       1.0  T
   8   -215.0339776 -0.746015E-05  0.132E-02    4.09       1.0  T
   9   -215.0340446 -0.670492E-04  0.241E-03    4.09       3.6  T
  10   -215.0340457 -0.110863E-05  0.158E-03    4.09       5.5  T
  11   -215.0340463 -0.549147E-06  0.762E-04    4.09      11.3  T
  12   -215.0340464 -0.911446E-07  0.594E-04    4.09      14.5  T
     SCC iter.                  ...        0 min,  0.431 sec
     gradient                   ...        0 min,  0.270 sec
 * total energy  :  -212.4133658 Eh     change       -0.1760048E-03 Eh
   gradient norm :     0.0071620 Eh/α   predicted    -0.1414267E-03 ( -19.65%)
   displ. norm   :     0.3481799 α      lambda       -0.2801309E-03
   maximum displ.:     0.2013359 α      in ANC's #9, #8, #10, ...

........................................................................
.............................. CYCLE   37 ..............................
........................................................................

 iter      E             dE          RMSdq      gap      omega  full diag
   1   -215.0376239 -0.215038E+03  0.440E-02    4.10       0.0  T
   2   -215.0324027  0.522118E-02  0.111E-01    4.07       1.0  T
   3   -215.0350443 -0.264160E-02  0.785E-02    4.09       1.0  T
[...]
                            10 C    0.106
     8   6 C    3.971 --    10 C    1.453     6 C    1.387    17 H    0.964
                             9 C    0.106
     9   6 C    3.981 --     7 C    1.450    11 C    1.423    18 H    0.970
                             8 C    0.106
    10   6 C    3.986 --     8 C    1.453    11 C    1.428    19 H    0.970
                             7 C    0.106
    11   6 C    3.954 --    10 C    1.428     9 C    1.423    20 H    0.971
    12   1 H    0.967 --     1 N    0.931
    13   1 H    0.994 --     2 C    0.955
    14   1 H    0.991 --     5 C    0.968
    15   1 H    0.996 --     5 C    0.965
    16   1 H    0.999 --     7 C    0.968
    17   1 H    0.996 --     8 C    0.964
    18   1 H    0.998 --     9 C    0.970
    19   1 H    0.998 --    10 C    0.970
    20   1 H    0.998 --    11 C    0.971
    21   7 N    3.429 --    93 C    1.252    22 C    0.980    29 H    0.939
                            94 O    0.185
    22   6 C    3.954 --    25 C    0.982    21 N    0.980    30 H    0.947
                            23 C    0.910
    23   6 C    3.944 --    24 O    1.631   117 N    1.285    22 C    0.910
    24   8 O    1.951 --    23 C    1.631   117 N    0.176
    25   6 C    3.967 --    22 C    0.982    31 H    0.971    32 H    0.952
                            26 C    0.933
    26   6 C    3.947 --    27 O    1.681    28 N    1.307    25 C    0.933
    27   8 O    1.978 --    26 C    1.681    28 N    0.205
    28   7 N    3.398 --    26 C    1.307    33 H    0.937    34 H    0.896
                            27 O    0.205
    29   1 H    0.965 --    21 N    0.939
    30   1 H    0.993 --    22 C    0.947
    31   1 H    0.995 --    25 C    0.971
    32   1 H    0.996 --    25 C    0.952
    33   1 H    0.958 --    28 N    0.937
    34   1 H    0.948 --    28 N    0.896
    35   7 N    3.377 --    99 C    1.192    36 C    1.004    46 H    0.925
                           100 O    0.164
    36   6 C    3.927 --    35 N    1.004    39 C    0.975    47 H    0.940
                            37 C    0.898
    37   6 C    3.934 --    38 O    1.669   123 N    1.299    36 C    0.898
    38   8 O    1.976 --    37 C    1.669   123 N    0.196
    39   6 C    3.984 --    40 C    1.003    36 C    0.975    48 H    0.975
                            49 H    0.972
    40   6 C    3.984 --    39 C    1.003    41 C    0.993    50 H    0.973
                            51 H    0.961
    41   6 C    3.961 --    40 C    0.993    42 N    0.990    52 H    0.972
                            53 H    0.964
    42   7 N    3.463 --    43 C    1.351    41 C    0.990    54 H    0.820
                            45 N    0.118
    43   6 C    3.974 --    42 N    1.351    45 N    1.347    44 N    1.243
    44   7 N    3.342 --    43 C    1.243    56 H    0.941    55 H    0.931
    45   7 N    3.384 --    43 C    1.347    58 H    0.940    57 H    0.795
                            42 N    0.118
    46   1 H    0.961 --    35 N    0.925
    47   1 H    0.985 --    36 C    0.940
    48   1 H    0.997 --    39 C    0.975
    49   1 H    0.994 --    39 C    0.972
    50   1 H    0.997 --    40 C    0.973
    51   1 H    0.993 --    40 C    0.961
    52   1 H    0.994 --    41 C    0.972
    53   1 H    0.997 --    41 C    0.964
    54   1 H    0.932 --    42 N    0.820
    55   1 H    0.956 --    44 N    0.931
    56   1 H    0.960 --    44 N    0.941
    57   1 H    0.925 --    45 N    0.795    82 O    0.108
    58   1 H    0.961 --    45 N    0.940
    59   7 N    3.366 --   105 C    1.188    60 C    0.981    71 H    0.940
                           106 O    0.167
    60   6 C    3.937 --    59 N    0.981    63 C    0.947    72 H    0.935
                            61 C    0.933
    61   6 C    3.953 --    62 O    1.664   129 N    1.290    60 C    0.933
    62   8 O    2.003 --    61 C    1.664   129 N    0.199
    63   6 C    3.970 --    64 C    1.036    73 H    0.972    60 C    0.947
                            74 H    0.932
    64   6 C    3.897 --    65 C    1.358    66 C    1.347    63 C    1.036
    65   6 C    3.972 --    67 C    1.500    64 C    1.358    75 H    0.967
    66   6 C    3.962 --    68 C    1.500    64 C    1.347    76 H    0.966
    67   6 C    3.942 --    65 C    1.500    69 C    1.299    77 H    0.965
    68   6 C    3.956 --    66 C    1.500    69 C    1.314    78 H    0.964
    69   6 C    3.866 --    68 C    1.314    67 C    1.299    70 O    1.145
    70   8 O    2.149 --    69 C    1.145    79 H    0.857
    71   1 H    0.969 --    59 N    0.940
    72   1 H    0.990 --    60 C    0.935
    73   1 H    0.997 --    63 C    0.972
    74   1 H    0.979 --    63 C    0.932
    75   1 H    0.998 --    65 C    0.967
    76   1 H    0.996 --    66 C    0.966
    77   1 H    0.995 --    67 C    0.965
    78   1 H    0.996 --    68 C    0.964
    79   1 H    0.886 --    70 O    0.857
    80   6 C    3.851 --    86 H    0.968    85 H    0.956    84 F    0.930
                            81 C    0.895
    81   6 C    3.937 --    83 O    1.553    82 O    1.462    80 C    0.895
    82   8 O    1.950 --    81 C    1.462    83 O    0.224    57 H    0.108
    83   8 O    1.963 --    81 C    1.553    82 O    0.224
    84   9 F    0.995 --    80 C    0.930
    85   1 H    0.994 --    80 C    0.956
    86   1 H    0.995 --    80 C    0.968
    87   6 C    3.946 --    88 O    1.702     1 N    1.219    89 C    0.986
    88   8 O    2.000 --    87 C    1.702     1 N    0.179
    89   6 C    3.990 --    87 C    0.986    92 H    0.980    91 H    0.965
                            90 H    0.960
    90   1 H    0.994 --    89 C    0.960
    91   1 H    0.992 --    89 C    0.965
    92   1 H    0.998 --    89 C    0.980
    93   6 C    3.944 --    94 O    1.657    21 N    1.252    95 C    0.992
    94   8 O    2.023 --    93 C    1.657    21 N    0.185
    95   6 C    3.991 --    93 C    0.992    96 H    0.982    98 H    0.967
                            97 H    0.964
    96   1 H    0.993 --    95 C    0.982
    97   1 H    0.994 --    95 C    0.964
    98   1 H    0.995 --    95 C    0.967
    99   6 C    3.942 --   100 O    1.721    35 N    1.192   101 C    0.987
   100   8 O    2.004 --    99 C    1.721    35 N    0.164
   101   6 C    3.986 --    99 C    0.987   103 H    0.980   102 H    0.967
                           104 H    0.960
   102   1 H    0.994 --   101 C    0.967
   103   1 H    0.994 --   101 C    0.980
   104   1 H    0.994 --   101 C    0.960
   105   6 C    3.943 --   106 O    1.729    59 N    1.188   107 C    0.986
   106   8 O    2.024 --   105 C    1.729    59 N    0.167
   107   6 C    3.989 --   105 C    0.986   110 H    0.981   108 H    0.972
                           109 H    0.962
   108   1 H    0.996 --   107 C    0.972
   109   1 H    0.995 --   107 C    0.962
   110   1 H    0.993 --   107 C    0.981
   111   7 N    3.470 --     3 C    1.305   113 C    1.006   112 H    0.919
                             4 O    0.203
   112   1 H    0.962 --   111 N    0.919
   113   6 C    3.961 --   111 N    1.006   115 H    0.982   114 H    0.971
                           116 H    0.967
   114   1 H    0.995 --   113 C    0.971
   115   1 H    0.994 --   113 C    0.982
   116   1 H    0.996 --   113 C    0.967
   117   7 N    3.441 --    23 C    1.285   119 C    1.001   118 H    0.923
                            24 O    0.176
   118   1 H    0.965 --   117 N    0.923
   119   6 C    3.962 --   117 N    1.001   121 H    0.981   122 H    0.977
                           120 H    0.973
   120   1 H    0.996 --   119 C    0.973
   121   1 H    0.996 --   119 C    0.981
   122   1 H    0.994 --   119 C    0.977
   123   7 N    3.462 --    37 C    1.299   125 C    0.997   124 H    0.931
                            38 O    0.196
   124   1 H    0.967 --   123 N    0.931
   125   6 C    3.950 --   123 N    0.997   127 H    0.976   126 H    0.975
                           128 H    0.974
   126   1 H    0.995 --   125 C    0.975
   127   1 H    0.996 --   125 C    0.976
   128   1 H    0.990 --   125 C    0.974
   129   7 N    3.463 --    61 C    1.290   131 C    0.998   130 H    0.935
                            62 O    0.199
   130   1 H    0.968 --   129 N    0.935
   131   6 C    3.950 --   129 N    0.998   133 H    0.976   132 H    0.975
                           134 H    0.973
   132   1 H    0.996 --   131 C    0.975
   133   1 H    0.995 --   131 C    0.976
   134   1 H    0.990 --   131 C    0.973
 ---------------------------------------------------------------------------

Topologies differ in bond orders
Writing corrected topology to xtbtopo.mol

molecular dipole:
                 x           y           z       tot (Debye)
 q only:        9.360     -13.976      69.040
   full:        8.850     -15.126      68.950     180.825
molecular quadrupole (traceless):
                xx          xy          yy          xz          yz          zz
 q only:    -2384.652    -214.676   -2234.393    1012.559   -1465.160    4619.045
  q+dip:    -2388.518    -225.680   -2195.779     966.026   -1574.161    4584.296
   full:    -2391.184    -223.248   -2197.029     964.655   -1573.296    4588.213

           -------------------------------------------------
          |                Geometry Summary                 |
           -------------------------------------------------

      molecular mass/u    :      951.0546388
   center of mass at/Å    :        3.8656002      -8.2054761      35.3658349
  moments of inertia/u·Å² :        0.1634510E+05   0.2310281E+05   0.3212435E+05
rotational constants/cm⁻¹ :        0.1031357E-02   0.7296789E-03   0.5247618E-03

 * 114 selected distances

     #   Z          #   Z                                           value/Å
     1   7 N        2   6 C                                       1.4597964
     3   6 C        4   8 O                                       1.2204347
     6   6 C        7   6 C                                       1.3918611
     6   6 C        8   6 C                                       1.3937613
     7   6 C        9   6 C                                       1.3838925
     8   6 C       10   6 C                                       1.3815521
     9   6 C       11   6 C                                       1.3869029
    10   6 C       11   6 C                                       1.3856465
     1   7 N       12   1 H                                       1.0226693
     2   6 C       13   1 H                                       1.0761648
     5   6 C       14   1 H                                       1.0901025
     5   6 C       15   1 H                                       1.0889932
     7   6 C       16   1 H                                       1.0831644
     8   6 C       17   1 H                                       1.0808208
     9   6 C       18   1 H                                       1.0820013
    10   6 C       19   1 H                                       1.0814889
    11   6 C       20   1 H                                       1.0815790
    21   7 N       22   6 C                                       1.4718119
    23   6 C       24   8 O                                       1.2210883
    22   6 C       25   6 C                                       1.5242339
    26   6 C       27   8 O                                       1.2118999
    26   6 C       28   7 N                                       1.3383433
    21   7 N       29   1 H                                       1.0068516
    22   6 C       30   1 H                                       1.0888421
    25   6 C       31   1 H                                       1.0913929
    25   6 C       32   1 H                                       1.0889046
    28   7 N       33   1 H                                       1.0056587
    28   7 N       34   1 H                                       1.0129540
    35   7 N       36   6 C                                       1.4504246
    37   6 C       38   8 O                                       1.2140641
    36   6 C       39   6 C                                       1.5378268 (max)
    39   6 C       40   6 C                                       1.5318154
    40   6 C       41   6 C                                       1.5359418
    41   6 C       42   7 N                                       1.4515839
    42   7 N       43   6 C                                       1.3217325
    43   6 C       44   7 N                                       1.3482400
    43   6 C       45   7 N                                       1.3231680
    35   7 N       46   1 H                                       1.0119207
    36   6 C       47   1 H                                       1.0913984
    39   6 C       48   1 H                                       1.0923415
    39   6 C       49   1 H                                       1.0904872
    40   6 C       50   1 H                                       1.0906542
    40   6 C       51   1 H                                       1.0910640
    41   6 C       52   1 H                                       1.0902836
    41   6 C       53   1 H                                       1.0957687
    42   7 N       54   1 H                                       1.0415693
    44   7 N       55   1 H                                       1.0042890
    44   7 N       56   1 H                                       1.0049117
    45   7 N       57   1 H                                       1.0448927
    45   7 N       58   1 H                                       1.0047470
    61   6 C       62   8 O                                       1.2147553
    64   6 C       65   6 C                                       1.3972999
    64   6 C       66   6 C                                       1.3990468
    65   6 C       67   6 C                                       1.3749769
    66   6 C       68   6 C                                       1.3757344
    67   6 C       69   6 C                                       1.4020377
    68   6 C       69   6 C                                       1.3993590
    69   6 C       70   8 O                                       1.3369336
    59   7 N       71   1 H                                       1.0109896
    60   6 C       72   1 H                                       1.0930088
    63   6 C       73   1 H                                       1.0920136
    63   6 C       74   1 H                                       1.0941784
    65   6 C       75   1 H                                       1.0824561
    66   6 C       76   1 H                                       1.0816887
    67   6 C       77   1 H                                       1.0810007
    68   6 C       78   1 H                                       1.0831629
    70   8 O       79   1 H                                       0.9678258 (min)
    81   6 C       83   8 O                                       1.2311565
    80   6 C       84   9 F                                       1.3846033
    80   6 C       85   1 H                                       1.0912577
    80   6 C       86   1 H                                       1.0930041
     1   7 N       87   6 C                                       1.3606275
    87   6 C       88   8 O                                       1.2118786
    89   6 C       90   1 H                                       1.0887836
    89   6 C       91   1 H                                       1.0884750
    89   6 C       92   1 H                                       1.0866562
    21   7 N       93   6 C                                       1.3526418
    93   6 C       94   8 O                                       1.2190403
    95   6 C       96   1 H                                       1.0874932
    95   6 C       97   1 H                                       1.0879926
    95   6 C       98   1 H                                       1.0878011
    35   7 N       99   6 C                                       1.3654774
    99   6 C      100   8 O                                       1.2083111
   101   6 C      102   1 H                                       1.0882280
   101   6 C      103   1 H                                       1.0863283
   101   6 C      104   1 H                                       1.0892014
    59   7 N      105   6 C                                       1.3704794
   105   6 C      106   8 O                                       1.2080207
   107   6 C      108   1 H                                       1.0877291
   107   6 C      109   1 H                                       1.0893767
   107   6 C      110   1 H                                       1.0864309
     3   6 C      111   7 N                                       1.3322094
   111   7 N      113   6 C                                       1.4399918
   113   6 C      114   1 H                                       1.0914825
   113   6 C      115   1 H                                       1.0872166
   113   6 C      116   1 H                                       1.0920110
    23   6 C      117   7 N                                       1.3400093
   117   7 N      118   1 H                                       1.0097329
   117   7 N      119   6 C                                       1.4450485
   119   6 C      120   1 H                                       1.0923493
   119   6 C      121   1 H                                       1.0889368
   119   6 C      122   1 H                                       1.0887155
    37   6 C      123   7 N                                       1.3351377
   123   7 N      124   1 H                                       1.0107269
   123   7 N      125   6 C                                       1.4458156
   125   6 C      126   1 H                                       1.0899768
   125   6 C      127   1 H                                       1.0905606
   125   6 C      128   1 H                                       1.0890097
    61   6 C      129   7 N                                       1.3375341
   129   7 N      130   1 H                                       1.0131957
   129   7 N      131   6 C                                       1.4450613
   131   6 C      132   1 H                                       1.0899949
   131   6 C      133   1 H                                       1.0898561
   131   6 C      134   1 H                                       1.0893923

 * 7 distinct bonds (by element types)

   Z      Z             #   av. dist./Å        max./Å        min./Å
   1 H    6 C          51     1.0882592     1.0957687     1.0761648
   6 C    6 C          16     1.4251181     1.5378268     1.3749769
   1 H    7 N          14     1.0146506     1.0448927     1.0042890
   6 C    7 N          20     1.3867567     1.4718119     1.3217325
   1 H    8 O           1     0.9678258     0.9678258     0.9678258
   6 C    8 O          11     1.2270530     1.3369336     1.2080207
   6 C    9 F           1     1.3846033     1.3846033     1.3846033


optimized geometry written to: xtbopt.mol


           -------------------------------------------------
          | TOTAL ENERGY             -212.416342990584 Eh   |
          | GRADIENT NORM               0.002984465854 Eh/α |
          | HOMO-LUMO GAP               4.061617155738 eV   |
           -------------------------------------------------

------------------------------------------------------------------------
 * finished run on 2024/03/04 at 14:15:11.528     
------------------------------------------------------------------------
 total:
 * wall-time:     0 d,  0 h,  1 min, 20.399 sec
 *  cpu-time:     0 d,  0 h,  1 min, 18.583 sec
 * ratio c/w:     0.977 speedup
 SCF:
 * wall-time:     0 d,  0 h,  0 min,  1.373 sec
 *  cpu-time:     0 d,  0 h,  0 min,  1.370 sec
 * ratio c/w:     0.998 speedup
 ANC optimizer:
 * wall-time:     0 d,  0 h,  1 min, 18.806 sec
 *  cpu-time:     0 d,  0 h,  1 min, 17.054 sec
 * ratio c/w:     0.978 speedup

