134
 energy: -212.190526283806 gnorm: 0.366669895808 xtb: 6.6.1 (8d0f1dd)
N            4.03100000000000      -12.29300000000000       34.00300000000000
C            4.11700000000000      -13.09000000000000       35.22300000000000
C            2.80500000000000      -13.76500000000000       35.61900000000000
O            1.80000000000000      -13.09200000000000       35.55200000000000
C            4.59200000000000      -12.20900000000000       36.38000000000000
C            4.38500000000000      -12.82400000000000       37.73499999999999
C            5.41400000000000      -13.50700000000000       38.36600000000000
C            3.16300000000000      -12.72100000000000       38.38000000000000
C            5.22500000000000      -14.07300000000000       39.61300000000000
C            2.97100000000000      -13.28500000000000       39.62700000000000
C            4.00400000000000      -13.96200000000000       40.24299999999999
H            3.64400000000000      -11.29100000000000       34.03200000000000
H            4.78400000000000      -13.83700000000000       35.03999999999999
H            5.65300000000000      -11.99500000000000       36.26199999999999
H            4.06200000000000      -11.25700000000000       36.35400000000000
H            6.38000000000000      -13.59300000000000       37.86800000000000
H            2.34600000000000      -12.18600000000000       37.89299999999999
H            6.04200000000000      -14.60700000000000       40.09700000000000
H            2.00500000000000      -13.19700000000000       40.12400000000000
H            3.85400000000000      -14.40900000000000       41.22500000000000
N            0.35700000000000       -8.50400000000000       30.99300000000000
C            1.00700000000000       -8.56700000000000       32.31200000000000
C            2.35900000000000       -7.78800000000000       32.18000000000000
O            2.33200000000000       -6.58300000000000       31.98999999999999
C            1.21400000000000      -10.00000000000000       32.76500000000000
C           -0.06300000000000      -10.65400000000000       33.21600000000000
O           -0.56200000000000      -11.58200000000000       32.57000000000000
N           -0.60200000000000      -10.18700000000000       34.31400000000000
H           -0.60600000000000       -8.81200000000000       30.95200000000000
H            0.41500000000000       -8.00200000000000       33.00100000000000
H            1.63700000000000      -10.58400000000000       31.94600000000000
H            1.93000000000000      -10.02300000000000       33.58600000000000
H           -1.45200000000000      -10.58300000000000       34.66200000000000
H           -0.16300000000000       -9.43400000000000       34.80400000000000
N            3.54000000000000       -3.85800000000000       30.28800000000000
C            4.25300000000000       -2.75700000000000       30.90700000000000
C            5.57500000000000       -2.44100000000000       30.18400000000000
O            6.12200000000000       -1.38000000000000       30.39700000000000
C            4.53600000000000       -3.06100000000000       32.38000000000000
C            3.25500000000000       -3.49500000000000       33.08900000000000
C            3.45200000000000       -3.76700000000000       34.58599999999999
N            2.28500000000000       -4.43000000000000       35.13100000000000
C            1.06200000000000       -3.93600000000000       35.10600000000000
N            0.84000000000000       -2.63900000000000       34.80800000000000
N            0.03200000000000       -4.72300000000000       35.38000000000000
H            3.36600000000000       -4.70800000000000       30.82500000000000
H            3.66400000000000       -1.85900000000000       30.81400000000000
H            5.28600000000000       -3.85000000000000       32.44900000000000
H            4.94700000000000       -2.16200000000000       32.84200000000000
H            2.48900000000000       -2.73300000000000       32.93900000000000
H            2.89300000000000       -4.42600000000000       32.65200000000000
H            4.28900000000000       -4.45200000000000       34.73200000000000
H            3.67400000000000       -2.84800000000000       35.13600000000000
H            2.39200000000000       -5.44000000000000       35.34400000000000
H            1.60900000000000       -1.99200000000000       34.78999999999999
H           -0.08100000000000       -2.25200000000000       34.92500000000000
H            0.15700000000000       -5.74700000000000       35.46900000000000
H           -0.90300000000000       -4.35500000000000       35.38600000000000
N            8.82100000000000       -7.15200000000000       40.12500000000000
C            7.89100000000000       -6.43100000000000       41.03300000000000
C            8.53700000000000       -5.38400000000000       41.93299999999999
O            7.95400000000000       -4.98600000000000       42.91999999999999
C            7.14100000000000       -7.43800000000000       41.90800000000000
C            5.98900000000000       -8.11900000000000       41.20400000000000
C            6.20200000000000       -9.29900000000000       40.50600000000000
C            4.71900000000000       -7.56300000000000       41.25500000000000
C            5.14900000000000       -9.92100000000000       39.86300000000000
C            3.66600000000000       -8.18500000000000       40.61200000000000
C            3.87800000000000       -9.35900000000000       39.91900000000000
O            2.83000000000000       -9.97900000000000       39.27800000000000
H            9.51500000000000       -7.73100000000000       40.58200000000000
H            7.20600000000000       -5.91900000000000       40.37400000000000
H            7.83300000000000       -8.20800000000000       42.25200000000000
H            6.75000000000000       -6.93200000000000       42.79000000000000
H            7.20000000000000       -9.73600000000000       40.46600000000000
H            4.55200000000000       -6.63600000000000       41.80300000000000
H            5.31600000000000      -10.84800000000000       39.31600000000000
H            2.66800000000000       -7.74800000000000       40.65199999999999
H            2.00100000000000       -9.68900000000000       39.66900000000000
C            1.92400000000000       -9.38000000000000       36.49699999999999
C            1.69000000000000       -7.92900000000000       35.98199999999999
O            0.56200000000000       -7.69900000000000       35.49300000000000
O            2.61400000000000       -7.12600000000000       36.11300000000000
F            0.96700000000000       -9.64100000000000       37.46300000000000
H            1.78600000000000      -10.13900000000000       35.72700000000000
H            2.90300000000000       -9.45900000000000       36.97900000000000
C            4.38700000000000      -12.67000000000000       32.80900000000000
O            4.78800000000000      -13.79200000000000       32.56100000000000
C            4.37000000000000      -11.66800000000000       31.83100000000000
H            5.08300000000000      -10.88800000000000       32.09700000000000
H            4.64300000000000      -12.09700000000000       30.86600000000000
H            3.37000000000000      -11.23900000000000       31.76700000000000
C            1.05100000000000       -8.80500000000000       29.88700000000000
O            2.22700000000000       -9.01900000000000       29.88500000000000
C            0.36500000000000       -8.73000000000000       28.66900000000000
H            1.08200000000000       -8.61600000000000       27.85400000000000
H           -0.21200000000000       -9.64200000000000       28.51899999999999
H           -0.30800000000000       -7.87200000000000       28.68200000000000
C            3.02000000000000       -3.80000000000000       29.07400000000000
O            2.89300000000000       -2.75800000000000       28.46800000000000
C            2.46100000000000       -5.00700000000000       28.63700000000000
H            2.63700000000000       -5.78100000000000       29.38400000000000
H            1.38800000000000       -4.87900000000000       28.49100000000000
H            2.92200000000000       -5.30100000000000       27.69300000000000
C            9.42700000000000       -6.49800000000000       39.15700000000000
O            9.14800000000000       -5.33900000000000       38.84500000000000
C           10.38600000000000       -7.20700000000000       38.42399999999999
H           11.17400000000000       -7.55300000000000       39.09400000000000
H            9.91600000000000       -8.06500000000000       37.94300000000000
H           10.81700000000000       -6.55500000000000       37.66300000000000
N            2.82200000000000      -15.07000000000000       35.99400000000000
H            1.61600000000000      -15.77300000000000       36.48600000000000
C            3.90900000000000      -15.94300000000000       36.12800000000000
H            4.28900000000000      -16.20400000000000       35.14100000000000
H            3.58800000000000      -16.84700000000000       36.64500000000000
H            4.69600000000000      -15.45800000000000       36.70500000000000
N            3.45800000000000       -8.31700000000000       32.68400000000000
H            3.37700000000000       -9.26900000000000       33.05500000000000
C            4.65400000000000       -7.58900000000000       32.69800000000000
H            4.97500000000000       -7.39700000000000       31.67500000000000
H            5.42200000000000       -8.16100000000000       33.21900000000000
H            4.49800000000000       -6.64200000000000       33.21400000000000
N            6.28800000000000       -3.49100000000000       29.82600000000000
H            6.02100000000000       -4.38800000000000       30.23200000000000
C            7.34800000000000       -3.31900000000000       28.92800000000000
H            6.96500000000000       -3.32100000000000       27.90800000000000
H            8.06300000000000       -4.13300000000000       29.04900000000000
H            7.84500000000000       -2.37000000000000       29.12900000000000
N            9.78100000000000       -5.55800000000000       42.29100000000000
H           10.20400000000000       -6.47200000000000       42.05100000000000
C           10.49400000000000       -4.55600000000000       42.96000000000000
H           11.17000000000000       -4.06200000000000       42.26199999999999
H           11.07000000000000       -4.99900000000000       43.77200000000000
H            9.79700000000000       -3.82500000000000       43.36900000000000
134
 energy: -212.293515138996 gnorm: 0.216415071738 xtb: 6.6.1 (8d0f1dd)
N            4.03100000000000      -12.29300000000000       34.00300000000000
C            4.11700000000000      -13.09000000000000       35.22300000000000
C            2.80500000000000      -13.76500000000000       35.61900000000000
O            1.79407309698729      -13.08783201046327       35.55161768478392
C            4.59292491814210      -12.20383769573719       36.38244091272891
C            4.38092278593187      -12.82889255443481       37.73357144626931
C            5.41333099030876      -13.51268766694100       38.36274004380304
C            3.15469283878369      -12.72264327501921       38.37646533953418
C            5.22412265757401      -14.07815648943622       39.61123121689667
C            2.96392817661133      -13.28797241458238       39.62370374108551
C            3.99876540214984      -13.96665395424807       40.24241945039709
H            3.64750673386192      -11.32306843276835       34.04843337613948
H            4.81646585173684      -13.85791771737847       35.02250252035817
H            5.65542313114886      -11.99345192427002       36.25326543163668
H            4.05473203396857      -11.25599090014533       36.35089046144268
H            6.37662097660295      -13.59565719137878       37.86850526006589
H            2.34388157386728      -12.18923965404016       37.89342110217701
H            6.03713541837343      -14.60907278064988       40.09285744885100
H            2.00298401363128      -13.19851814540099       40.11724956341101
H            3.84956560847160      -14.41123953283399       41.21962636173499
N            0.35700000000000       -8.50400000000000       30.99300000000000
C            1.00700000000000       -8.56700000000000       32.31200000000000
C            2.35900000000000       -7.78800000000000       32.18000000000000
O            2.33594307987283       -6.58372608344740       31.93910230722994
C            1.21507907732078      -10.00427291464965       32.76362462423970
C           -0.07023674791389      -10.66520280809232       33.20492679873266
O           -0.56486388947475      -11.57650979114247       32.55929662650249
N           -0.60745934121342      -10.18172081818268       34.31533837736337
H           -0.61006977089590       -8.79530012678424       30.95252118297045
H            0.40864419570274       -7.99489571776566       33.00716823906512
H            1.63003298045577      -10.58292388819585       31.93706216310807
H            1.91728411555812      -10.02874164387564       33.59796465300833
H           -1.45755723994865      -10.58223510578348       34.66497606862096
H           -0.17110583933578       -9.41876101587399       34.80988792632827
N            3.54000000000000       -3.85800000000000       30.28800000000000
C            4.25300000000000       -2.75700000000000       30.90700000000000
C            5.57500000000000       -2.44100000000000       30.18400000000000
O            6.09375083844865       -1.34877333484234       30.34428510593812
C            4.53916664813551       -3.06000880080987       32.38149531624041
C            3.25876000592793       -3.49560244430768       33.09179095859236
C            3.45407079644252       -3.76799936367960       34.58811230334171
N            2.28706045776651       -4.43644738610385       35.13173879531731
C            1.06368062919493       -3.94029942314513       35.10897467185166
N            0.84210473592631       -2.64297357985687       34.81450678596558
N            0.03323802213227       -4.73073836632583       35.38073547420500
H            3.37938257900121       -4.70596970258127       30.82210082099874
H            3.65724978516408       -1.85186897249402       30.81601287485341
H            5.28957992340596       -3.84935376590930       32.45443717652886
H            4.95101575582526       -2.16205424961905       32.84415594297213
H            2.49462895344104       -2.73274274155443       32.93909602712178
H            2.89118365147033       -4.42506361380042       32.65592072603257
H            4.29314839654703       -4.44861950592764       34.73521993992770
H            3.67319846747088       -2.84747670950140       35.13858165878978
H            2.39208205431760       -5.44297498385252       35.35510060991246
H            1.61041402800521       -1.99438757341912       34.79521714760374
H           -0.07891537066799       -2.25438141525289       34.92674071232805
H            0.15914957513769       -5.74946667193048       35.46814773516181
H           -0.90214819772281       -4.36202975953734       35.38683046185209
N            8.82100000000000       -7.15200000000000       40.12500000000000
C            7.89100000000000       -6.43100000000000       41.03300000000000
C            8.53700000000000       -5.38400000000000       41.93299999999999
O            7.87895944609038       -4.88469056555678       42.86114775864802
C            7.13798222021573       -7.44418891809019       41.91280197139587
C            5.99244657963597       -8.11686122285220       41.20257698820780
C            6.19790608763051       -9.30012411499335       40.50163868614663
C            4.71823504102044       -7.56256742412518       41.25355734876869
C            5.14798906293959       -9.92452230397766       39.85845725157324
C            3.66262039803059       -8.18378750774392       40.61648883587023
C            3.87260477361653       -9.36630231646129       39.92077851444882
O            2.83926542922974       -9.99139820584504       39.28857857243335
H            9.49154171253869       -7.75983392511469       40.58335176695710
H            7.19799476816512       -5.91832298743896       40.37036079624601
H            7.83519184658319       -8.21097290148768       42.25599122745477
H            6.74876342459023       -6.92875601425908       42.79087483415744
H            7.18939244987991       -9.73894362715978       40.46606803472766
H            4.55131219025719       -6.64253268838345       41.80207945734382
H            5.30789982666683      -10.84906647447162       39.31712538884697
H            2.66804635713416       -7.75085358411563       40.65427401171965
H            2.00008551002718       -9.68702280629737       39.65492686277705
C            1.92400000000000       -9.38000000000000       36.49699999999999
C            1.69000000000000       -7.92900000000000       35.98199999999999
O            0.56200000000000       -7.69900000000000       35.49300000000000
O            2.61400000000000       -7.12600000000000       36.11300000000000
F            0.96700000000000       -9.64100000000000       37.46300000000000
H            1.78530884127510      -10.13883772198038       35.72422682205472
H            2.90112414296514       -9.45723437229345       36.98019347699419
C            4.40273075747225      -12.69846523365092       32.79709280993273
O            4.79866717167711      -13.82641054600071       32.56614845957980
C            4.37442525038227      -11.65053492218292       31.79452982630602
H            5.08559902622544      -10.87379075355384       32.07557530798826
H            4.64812910266451      -12.08191312067997       30.83871998448635
H            3.37535951992097      -11.22561397769576       31.73777372406863
C            1.07981394812656       -8.79533271439514       29.89079166285501
O            2.27619134903364       -9.01014525100838       29.91716214728514
C            0.35255865957794       -8.72301386969080       28.63769073581455
H            1.07573639602403       -8.61446103513114       27.83327784689605
H           -0.21985800658286       -9.63799797953456       28.49700038425455
H           -0.32103472135947       -7.86816454464920       28.65857784348907
C            2.99787490517901       -3.77394446034342       29.07311467783851
O            2.91700722257077       -2.72851077005608       28.45479269877874
C            2.44711208575752       -5.03463979661898       28.61943151987795
H            2.62373947852938       -5.80487711386208       29.36868180810023
H            1.38020559406459       -4.89476719068019       28.47132091552487
H            2.91588444852889       -5.31189896458668       27.67876552338298
C            9.41837725189865       -6.46652792288114       39.14107250111421
O            9.12498803345804       -5.31853946611588       38.84520792447541
C           10.41311361118535       -7.21973744443364       38.40349686198341
H           11.19056472182792       -7.56904555449308       39.08300212717330
H            9.93165562144491       -8.07805313199010       37.93592364620773
H           10.83672355484542       -6.56656957818642       37.64862914788323
N            2.79927248463346      -15.06003978572103       36.00040772903489
H            1.68190016751766      -15.67124209663393       36.42714052442984
C            3.91026412179546      -15.94077426221150       36.12261323049703
H            4.29423217761359      -16.21068241814291       35.13552377969327
H            3.59865707567541      -16.84715547644419       36.63650917492340
H            4.70423162723138      -15.46801054727362       36.70498440285756
N            3.46167399850142       -8.33334486553217       32.67801111409941
H            3.39829945595592       -9.27401215627713       33.04234281365726
C            4.67009458673983       -7.58968800494217       32.69883436066322
H            4.98948877035672       -7.39014760222247       31.67504404509028
H            5.43463539222449       -8.15841732757892       33.22091959559624
H            4.50541577015772       -6.64105777243095       33.21508088140259
N            6.28348864101725       -3.50560529712266       29.81447482843822
H            6.01470618535793       -4.40111736335163       30.20060361533976
C            7.36894778952085       -3.32860144180030       28.92003615132630
H            6.98775017156749       -3.31906922870949       27.89787434978443
H            8.08290531171924       -4.13755626418270       29.04535366517539
H            7.85197283599953       -2.37278358051016       29.13212410720879
N            9.82203367588300       -5.56131705580833       42.26367860289167
H           10.24608657592155       -6.45761065622380       42.02855318532216
C           10.52202088897891       -4.55670449729132       42.96957144809875
H           11.19161929802554       -4.05077295315733       42.27517193251411
H           11.08217243026867       -5.00179429100569       43.78781238132135
H            9.80375745093619       -3.83989189766901       43.37291011108550
134
 energy: -212.348309146161 gnorm: 0.135646291488 xtb: 6.6.1 (8d0f1dd)
N            4.03100000000000      -12.29300000000000       34.00300000000000
C            4.11700000000000      -13.09000000000000       35.22300000000000
C            2.80500000000000      -13.76500000000000       35.61900000000000
O            1.78767757315658      -13.08724198820122       35.55363612693003
C            4.59427190256961      -12.20013449213583       36.38504613528720
C            4.37814408297514      -12.83205355367811       37.73277285420041
C            5.41156405007895      -13.51840027616506       38.35970093243245
C            3.14782588522128      -12.72478978546296       38.37234571572662
C            5.22101520610917      -14.08464544787551       39.60822786518037
C            2.95763019021159      -13.29283357994344       39.61865567756875
C            3.99291420985842      -13.97241498349907       40.23974351179495
H            3.64539459937955      -11.35279184433357       34.06731078138239
H            4.83737323885715      -13.86394443287460       35.00705881353787
H            5.65631423760189      -11.99009480158526       36.24461306496316
H            4.04684651712427      -11.25739881448035       36.34757922613602
H            6.37346066180654      -13.59934432674878       37.86868485567516
H            2.34017991205712      -12.19245029467876       37.89242368500023
H            6.03177437102343      -14.61292282120122       40.08928120362810
H            1.99935249682234      -13.20135587197245       40.10992128236576
H            3.84416980933069      -14.41455016061178       41.21447220142457
N            0.35700000000000       -8.50400000000000       30.99300000000000
C            1.00700000000000       -8.56700000000000       32.31200000000000
C            2.35900000000000       -7.78800000000000       32.18000000000000
O            2.34106318495823       -6.59398928093615       31.88205235744444
C            1.21334383767871      -10.00740794687049       32.76418934349021
C           -0.08427885216929      -10.67401525315868       33.19331927274649
O           -0.57511489114956      -11.57262529248729       32.54840976095680
N           -0.61355150232794      -10.17389126899506       34.31529064600468
H           -0.61631093481233       -8.76978054971209       30.95389818763411
H            0.40424663080444       -7.99180823820634       33.01213440994965
H            1.62172299750572      -10.58067255066761       31.93096744716589
H            1.89934744409683      -10.03624112400248       33.61156235823282
H           -1.46134218748932      -10.58040431931293       34.66854581478081
H           -0.18534178329234       -9.40203107690149       34.81228648798450
N            3.54000000000000       -3.85800000000000       30.28800000000000
C            4.25300000000000       -2.75700000000000       30.90700000000000
C            5.57500000000000       -2.44100000000000       30.18400000000000
O            6.05673984072367       -1.32188212802066       30.27319851650085
C            4.54168308986933       -3.06050116504192       32.38296261999205
C            3.26188032771682       -3.49697321746162       33.09523089777505
C            3.45602584324661       -3.76963759320120       34.59112484611355
N            2.28987077295417       -4.44559316761247       35.13238407375798
C            1.06608029225595       -3.94744460223125       35.11358429027312
N            0.84463703118522       -2.65023162536841       34.82460650800192
N            0.03567630702276       -4.74194292641689       35.38186326228158
H            3.39630372815643       -4.70765167308013       30.81742978219988
H            3.65312103914447       -1.84731146017245       30.81762487167581
H            5.29355411170824       -3.84899932381450       32.45906262487041
H            4.95425356667580       -2.16299726378926       32.84590605381186
H            2.50034204086045       -2.73226965677036       32.93978478727455
H            2.88903489357306       -4.42466419335702       32.65920423549869
H            4.29894991361493       -4.44438217202215       34.73987890544211
H            3.66978806700470       -2.84771230342509       35.14255037777998
H            2.39369614354292       -5.44823455876650       35.37175080551961
H            1.61154947191813       -1.99962099462352       34.80303515926325
H           -0.07661473257907       -2.25984509782784       34.92922756500760
H            0.16318026246988       -5.75693579977513       35.46751513020151
H           -0.90000667991851       -4.37299579099966       35.38840820469628
N            8.82100000000000       -7.15200000000000       40.12500000000000
C            7.89100000000000       -6.43100000000000       41.03300000000000
C            8.53700000000000       -5.38400000000000       41.93299999999999
O            7.82881113828250       -4.78398907014439       42.76876384248997
C            7.13568471616487       -7.45067546109988       41.91813331457806
C            5.99752198603443       -8.11449384271132       41.20188662038586
C            6.19425788081792       -9.30028371409278       40.49650541497664
C            4.71820222943341       -7.56199745217562       41.25054069939408
C            5.14737795657080       -9.92702721506897       39.85534478332668
C            3.66040782046452       -8.18303588264198       40.62177115733132
C            3.86618429797390       -9.37413926683682       39.92461980830191
O            2.85036768960008      -10.00904425393068       39.30658157129543
H            9.45725700101902       -7.79768024709865       40.58193861058516
H            7.18993208272543       -5.91522162545908       40.37397671564430
H            7.83851335995405       -8.21258514293785       42.26164851094179
H            6.74939571577038       -6.92237379529041       42.79053567883778
H            7.18062287171913       -9.74258324708994       40.46424299531328
H            4.55119275970709       -6.64666273329230       41.80049408744384
H            5.29794556153388      -10.85163259589737       39.31823592924701
H            2.66685759843670       -7.75500336907479       40.65934415299176
H            1.99785791132775       -9.68148841443748       39.63110506237390
C            1.92400000000000       -9.38000000000000       36.49699999999999
C            1.69000000000000       -7.92900000000000       35.98199999999999
O            0.56200000000000       -7.69900000000000       35.49299999999999
O            2.61400000000000       -7.12600000000000       36.11300000000000
F            0.96700000000000       -9.64100000000000       37.46299999999999
H            1.78448300383300      -10.13800589803696       35.72215681156740
H            2.89978325628590       -9.45539447418293       36.98152720555218
C            4.41906097948188      -12.72724744023431       32.78652950537789
O            4.80901942906037      -13.85303935325687       32.57663104549749
C            4.38119026453506      -11.64060064116153       31.76469868930686
H            5.08950110952482      -10.86568824120180       32.05482163403315
H            4.65687941848866      -12.06707289398948       30.81032871908534
H            3.38390887355472      -11.21892438021647       31.70750339802425
C            1.10527188804920       -8.78237460605024       29.89465203271580
O            2.30644280445991       -8.98700212458967       29.95062302726566
C            0.34763435288221       -8.71615767888613       28.61372621281767
H            1.07028865790083       -8.61162232442098       27.81115993935917
H           -0.22097682247027       -9.63327727462508       28.48056892428394
H           -0.32720525676570       -7.86532583849880       28.63930595774987
C            2.98258568463933       -3.75102237945785       29.06863444246924
O            2.94008576780970       -2.70953088163324       28.44710454179502
C            2.43386243642612       -5.05447057105143       28.60328168726661
H            2.61024427563283       -5.82260001438947       29.35174928033589
H            1.36991905558396       -4.91152424981489       28.44983851484322
H            2.90870200166517       -5.31865619763557       27.66441265680798
C            9.41056894208407       -6.43723907782920       39.12597329531594
O            9.09882211138575       -5.30682336759173       38.84050039241031
C           10.43482987725826       -7.23098701711182       38.38864167083557
H           11.20353471253187       -7.58097218733111       39.07439198255772
H            9.94490956395116       -8.08860538913219       37.93193545279468
H           10.85981687120139       -6.58312490623786       37.63331895166935
N            2.78262504032455      -15.05001331115763       36.00760595083290
H            1.77518387952427      -15.54402212088198       36.35503924389800
C            3.91278864803046      -15.93920092689263       36.11633866072400