      -----------------------------------------------------------      
     |                   =====================                   |     
     |                           x T B                           |     
     |                   =====================                   |     
     |                         S. Grimme                         |     
     |          Mulliken Center for Theoretical Chemistry        |     
     |                    University of Bonn                     |     
      -----------------------------------------------------------      

   * xtb version 6.6.1 (8d0f1dd) compiled by 'stahn@M-Bot' on 2023-08-01

   xtb is free software: you can redistribute it and/or modify it under
   the terms of the GNU Lesser General Public License as published by
   the Free Software Foundation, either version 3 of the License, or
   (at your option) any later version.
   
   xtb is distributed in the hope that it will be useful,
   but WITHOUT ANY WARRANTY; without even the implied warranty of
   MERCHANTABILITY or FITNESS FOR A PARTICULAR PURPOSE.  See the
   GNU Lesser General Public License for more details.
   
   Cite this work as:
   * C. Bannwarth, E. Caldeweyher, S. Ehlert, A. Hansen, P. Pracht,
     J. Seibert, S. Spicher, S. Grimme, WIREs Comput. Mol. Sci., 2020, 11,
     e01493. DOI: 10.1002/wcms.1493
   
   for GFN2-xTB:
   * C. Bannwarth, S. Ehlert and S. Grimme., J. Chem. Theory Comput., 2019,
     15, 1652-1671. DOI: 10.1021/acs.jctc.8b01176
   for GFN1-xTB:
   * S. Grimme, C. Bannwarth, P. Shushkov, J. Chem. Theory Comput., 2017,
     13, 1989-2009. DOI: 10.1021/acs.jctc.7b00118
   for GFN0-xTB:
   * P. Pracht, E. Caldeweyher, S. Ehlert, S. Grimme, ChemRxiv, 2019, preprint.
     DOI: 10.26434/chemrxiv.8326202.v1
   for GFN-FF:
   * S. Spicher and S. Grimme, Angew. Chem. Int. Ed., 2020, 59, 15665-15673.
     DOI: 10.1002/anie.202004239
   
   for ALPB and GBSA implicit solvation:
   * S. Ehlert, M. Stahn, S. Spicher, S. Grimme, J. Chem. Theory Comput.,
     2021, 17, 4250-4261. DOI: 10.1021/acs.jctc.1c00471
   
   for DFT-D4:
   * E. Caldeweyher, C. Bannwarth and S. Grimme, J. Chem. Phys., 2017,
     147, 034112. DOI: 10.1063/1.4993215
   * E. Caldeweyher, S. Ehlert, A. Hansen, H. Neugebauer, S. Spicher,
     C. Bannwarth and S. Grimme, J. Chem. Phys., 2019, 150, 154122.
     DOI: 10.1063/1.5090222
   * E. Caldeweyher, J.-M. Mewes, S. Ehlert and S. Grimme, Phys. Chem. Chem. Phys.
     2020, 22, 8499-8512. DOI: 10.1039/D0CP00502A
   
   for sTDA-xTB:
   * S. Grimme and C. Bannwarth, J. Chem. Phys., 2016, 145, 054103.
     DOI: 10.1063/1.4959605
   
   in the mass-spec context:
   * V. Asgeirsson, C. Bauer and S. Grimme, Chem. Sci., 2017, 8, 4879.
     DOI: 10.1039/c7sc00601b
   * J. Koopman and S. Grimme, ACS Omega 2019, 4, 12, 15120-15133.
     DOI: 10.1021/acsomega.9b02011
   
   for metadynamics refer to:
   * S. Grimme, J. Chem. Theory Comput., 2019, 155, 2847-2862
     DOI: 10.1021/acs.jctc.9b00143
   
   for SPH calculations refer to:
   * S. Spicher and S. Grimme, J. Chem. Theory Comput., 2021, 17, 1701-1714
     DOI: 10.1021/acs.jctc.0c01306
   
   with help from (in alphabetical order)
   P. Atkinson, C. Bannwarth, F. Bohle, G. Brandenburg, E. Caldeweyher
   M. Checinski, S. Dohm, S. Ehlert, S. Ehrlich, I. Gerasimov, C. Hölzer
   A. Katbashev, J. Koopman, C. Lavigne, S. Lehtola, F. März, M. Müller,
   F. Musil, H. Neugebauer, J. Pisarek, C. Plett, P. Pracht, F. Pultar,
   J. Seibert, P. Shushkov, S. Spicher, M. Stahn, M. Steiner, T. Strunk,
   J. Stückrath, T. Rose, and J. Unsleber
   
 * started run on 2024/03/04 at 14:02:05.335     

           -------------------------------------------------
          |                Calculation Setup                |
           -------------------------------------------------

          program call               : /home/jurichc/xtb-6.6.1/bin/xtb --chrg 2 --iterations 1000 --parallel 1 --norestart --sp /panfs/accrepfs.vampire/data/yang_lab/jurichc/enzy_rcd_benchmarking/enzy_rcd_no_qm/3r3v/QM_SPE/xtb_coords.mol
          hostname                   : cn1445
          coordinate file            : /panfs/accrepfs.vampire/data/yang_lab/jurichc/enzy_rcd_benchmarking/enzy_rcd_no_qm/3r3v/QM_SPE/xtb_coords.mol
          omp threads                :                     1

   ID    Z sym.   atoms
    1    7 N      1, 8, 15, 22, 24, 25, 39, 46, 48, 49, 63, 69, 72, 105, 111,
                  117
    2    6 C      2, 3, 5, 6, 16, 17, 19-21, 23, 40, 41, 43-45, 47, 64, 65,
                  67, 68, 70, 71, 80, 81, 87, 89, 93, 95, 99, 101, 107, 113,
                  119
    3    8 O      4, 7, 18, 42, 66, 82, 83, 88, 94, 100
    4    1 H      9-14, 26-38, 50-62, 73-79, 85, 86, 90-92, 96-98, 102-104,
                  106, 108-110, 112, 114-116, 118, 120-122
    5    9 F      84

molecular fragmentation (1/2 indicates fragments):
111111111111111111111111111111111111112222222222222222222222222222222222
22222222222222111111222222222222111111222222222222
# atoms in fragment 1/2:    50    72
 fragment masses (1/2) :      344.39      517.56
CMA distance (Bohr)    :   7.021
constraining FC (au)   :  0.0500
########################################################################
[WARNING] Please study the warnings concerning your input carefully
-1- prog_main: Charge in sdf/mol input was overwritten
########################################################################

           -------------------------------------------------
          |                 G F N 2 - x T B                 |
           -------------------------------------------------

        Reference                      10.1021/acs.jctc.8b01176
      * Hamiltonian:
        H0-scaling (s, p, d)           1.850000    2.230000    2.230000
        zeta-weighting                 0.500000
      * Dispersion:
        s8                             2.700000
        a1                             0.520000
        a2                             5.000000
        s9                             5.000000
      * Repulsion:
        kExp                           1.500000    1.000000
        rExp                           1.000000
      * Coulomb:
        alpha                          2.000000
        third order                    shell-resolved
        anisotropic                    true
        a3                             3.000000
        a5                             4.000000
        cn-shift                       1.200000
        cn-exp                         4.000000
        max-rad                        5.000000


          ...................................................
          :                      SETUP                      :
          :.................................................:
          :  # basis functions                 302          :
          :  # atomic orbitals                 302          :
          :  # shells                          182          :
          :  # electrons                       339          :
          :  max. iterations                  1000          :
          :  Hamiltonian                  GFN2-xTB          :
          :  restarted?                      false          :
          :  GBSA solvation                  false          :
          :  PC potential                    false          :
          :  electronic temp.          300.0000000     K    :
          :  accuracy                    1.0000000          :
          :  -> integral cutoff          0.2500000E+02      :
          :  -> integral neglect         0.1000000E-07      :
          :  -> SCF convergence          0.1000000E-05 Eh   :
          :  -> wf. convergence          0.1000000E-03 e    :
          :  Broyden damping             0.4000000          :
          ...................................................

 iter      E             dE          RMSdq      gap      omega  full diag
   1   -194.9249425 -0.194925E+03  0.435E+00    3.83       0.0  T
   2   -195.8459362 -0.920994E+00  0.250E+00    0.73       1.0  T
   3   -195.8544917 -0.855558E-02  0.144E+00    1.04       1.0  T
   4   -194.2299670  0.162452E+01  0.283E+00    0.44       1.0  T
   5   -195.8085267 -0.157856E+01  0.109E+00    1.00       1.0  T
   6   -195.8584710 -0.499443E-01  0.871E-01    1.14       1.0  T
   7   -195.9031423 -0.446713E-01  0.690E-01    1.40       1.0  T
   8   -195.9229121 -0.197698E-01  0.534E-01    1.39       1.0  T
   9   -195.9191618  0.375030E-02  0.546E-01    1.43       1.0  T
  10   -195.8095091  0.109653E+00  0.751E-01    1.10       1.0  T
  11   -195.9445223 -0.135013E+00  0.338E-01    1.32       1.0  T
  12   -195.9590213 -0.144990E-01  0.291E-01    1.31       1.0  T
  13   -195.9493254  0.969590E-02  0.395E-01    1.28       1.0  T
  14   -195.9474819  0.184350E-02  0.375E-01    1.27       1.0  T
  15   -195.9687632 -0.212813E-01  0.227E-01    1.23       1.0  T
  16   -195.9700811 -0.131793E-02  0.197E-01    1.19       1.0  T
  17   -195.9748288 -0.474775E-02  0.150E-01    1.16       1.0  T
  18   -195.9789108 -0.408191E-02  0.871E-02    1.14       1.0  T
  19   -195.9795568 -0.646013E-03  0.594E-02    1.11       1.0  T
  20   -195.9802101 -0.653291E-03  0.365E-02    1.09       1.0  T
  21   -195.9800403  0.169725E-03  0.399E-02    1.08       1.0  T
  22   -195.9803790 -0.338621E-03  0.210E-02    1.06       1.0  T
  23   -195.9804740 -0.950511E-04  0.113E-02    1.05       1.0  T
  24   -195.9804939 -0.198394E-04  0.570E-03    1.03       1.6  T
  25   -195.9804937  0.157652E-06  0.471E-03    1.03       1.9  T
  26   -195.9804991 -0.538426E-05  0.169E-03    1.02       5.3  T
  27   -195.9804994 -0.307197E-06  0.108E-03    1.02       8.4  T
  28   -195.9804995 -0.148183E-06  0.549E-04    1.02      16.5  T
  29   -195.9804996 -0.776923E-07  0.205E-04    1.02      44.2  T

   *** convergence criteria satisfied after 29 iterations ***

         #    Occupation            Energy/Eh            Energy/eV
      -------------------------------------------------------------
         1        2.0000           -0.9791092             -26.6429
       ...           ...                  ...                  ...
       164        1.9993           -0.5134376             -13.9713
       165        1.9878           -0.5106744             -13.8962
       166        1.9824           -0.5103159             -13.8864
       167        1.9580           -0.5094685             -13.8633
       168        1.8699           -0.5083014             -13.8316
       169        1.8400           -0.5080717             -13.8253
       170        1.3626           -0.5059607             -13.7679 (HOMO)
       171                         -0.4686507             -12.7526 (LUMO)
       172                         -0.4531045             -12.3296
       173                         -0.3871422             -10.5347
       174                         -0.3808150             -10.3625
       175                         -0.3785314             -10.3004
       ...                                ...                  ...
       302                          0.5735285              15.6065
      -------------------------------------------------------------
                  HL-Gap            0.0373100 Eh            1.0153 eV
             Fermi-level           -0.4968510 Eh          -13.5200 eV

 SCC (total)                   0 d,  0 h,  0 min,  1.178 sec
 SCC setup                      ...        0 min,  0.005 sec (  0.425%)
 Dispersion                     ...        0 min,  0.012 sec (  1.010%)
 classical contributions        ...        0 min,  0.002 sec (  0.189%)
 integral evaluation            ...        0 min,  0.086 sec (  7.259%)
 iterations                     ...        0 min,  0.829 sec ( 70.400%)
 molecular gradient             ...        0 min,  0.230 sec ( 19.523%)
 printout                       ...        0 min,  0.014 sec (  1.188%)

         :::::::::::::::::::::::::::::::::::::::::::::::::::::
         ::                     SUMMARY                     ::
         :::::::::::::::::::::::::::::::::::::::::::::::::::::
         :: total energy            -193.565322915757 Eh    ::
         :: gradient norm              0.390698045745 Eh/a0 ::
         :: HOMO-LUMO gap              1.015255567225 eV    ::
         ::.................................................::
         :: SCC energy              -195.980499613469 Eh    ::
         :: -> isotropic ES            0.682582575591 Eh    ::
         :: -> anisotropic ES         -0.015199720929 Eh    ::
         :: -> anisotropic XC          0.058952930414 Eh    ::
         :: -> dispersion             -0.135545813841 Eh    ::
         :: repulsion energy           2.408527074311 Eh    ::
         :: add. restraining           0.000000000000 Eh    ::
         :: total charge               2.000000000700 e     ::
         :::::::::::::::::::::::::::::::::::::::::::::::::::::

           -------------------------------------------------
          |                Property Printout                |
           -------------------------------------------------

    * Orbital Energies and Occupations

         #    Occupation            Energy/Eh            Energy/eV
      -------------------------------------------------------------
         1        2.0000           -0.9791092             -26.6429
       ...           ...                  ...                  ...
       158        2.0000           -0.5403524             -14.7037
       159        2.0000           -0.5378291             -14.6351
       160        2.0000           -0.5279907             -14.3674
       161        2.0000           -0.5224953             -14.2178
       162        2.0000           -0.5192071             -14.1283
       163        2.0000           -0.5171156             -14.0714
       164        1.9993           -0.5134376             -13.9713
       165        1.9878           -0.5106744             -13.8962
       166        1.9824           -0.5103159             -13.8864
       167        1.9580           -0.5094685             -13.8633
       168        1.8699           -0.5083014             -13.8316
       169        1.8400           -0.5080717             -13.8253
       170        1.3626           -0.5059607             -13.7679 (HOMO)
       171                         -0.4686507             -12.7526 (LUMO)
       172                         -0.4531045             -12.3296
       173                         -0.3871422             -10.5347
       174                         -0.3808150             -10.3625
       175                         -0.3785314             -10.3004
       176                         -0.3446310              -9.3779
       177                         -0.3416629              -9.2971
       178                         -0.3397487              -9.2450
       179                         -0.3314905              -9.0203
       180                         -0.3282897              -8.9332
       181                         -0.3217494              -8.7552
       ...                                ...                  ...
       302                          0.5735285              15.6065
      -------------------------------------------------------------
                  HL-Gap            0.0373100 Eh            1.0153 eV
             Fermi-level           -0.4968510 Eh          -13.5200 eV

     #   Z          covCN         q      C6AA      α(0)
     1   7 N        2.700    -0.192    25.174     7.452
     2   6 C        3.798     0.020    20.242     6.406
     3   6 C        2.751     0.281    22.238     7.722
     4   8 O        0.863    -0.443    22.547     6.366
     5   6 C        3.812    -0.110    22.598     6.766
     6   6 C        2.746     0.281    22.245     7.723
     7   8 O        0.860    -0.494    23.655     6.521
     8   7 N        2.642    -0.248    26.468     7.641
     9   1 H        0.859     0.186     1.183     1.704
    10   1 H        0.930     0.099     1.791     2.093
    11   1 H        0.924     0.114     1.662     2.016
    12   1 H        0.924     0.067     2.123     2.279
    13   1 H        0.861     0.202     1.098     1.641
    14   1 H        0.861     0.207     1.073     1.623
    15   7 N        2.687    -0.207    25.501     7.500
    16   6 C        3.800     0.018    20.279     6.412
    17   6 C        2.762     0.262    22.589     7.783
    18   8 O        0.859    -0.471    23.154     6.451
    19   6 C        3.811    -0.081    22.033     6.681
    20   6 C        3.807    -0.080    22.013     6.679
    21   6 C        3.744    -0.017    20.946     6.529
    22   7 N        2.700    -0.164    24.546     7.358
    23   6 C        2.736     0.236    23.053     7.861
    24   7 N        2.655    -0.229    26.007     7.574
    25   7 N        2.654    -0.226    25.947     7.565
    26   1 H        0.859     0.180     1.216     1.728
    27   1 H        0.930     0.068     2.112     2.273
    28   1 H        0.925     0.068     2.112     2.272
    29   1 H        0.924     0.075     2.032     2.229
    30   1 H        0.925     0.049     2.329     2.387
    31   1 H        0.924     0.078     1.997     2.210
    32   1 H        0.924     0.070     2.089     2.260
    33   1 H        0.925     0.086     1.921     2.168
    34   1 H        0.860     0.189     1.165     1.691
    35   1 H        0.860     0.234     0.949     1.526
    36   1 H        0.860     0.236     0.939     1.518
    37   1 H        0.860     0.207     1.071     1.622
    38   1 H        0.860     0.278     0.782     1.385
    39   7 N        2.714    -0.189    25.099     7.441
    40   6 C        3.801     0.018    20.281     6.412
    41   6 C        2.778     0.258    22.653     7.796
    42   8 O        0.857    -0.400    21.688     6.244
    43   6 C        3.812    -0.081    22.034     6.681
    44   6 C        3.807    -0.078    21.984     6.675
    45   6 C        3.744    -0.008    20.787     6.504
    46   7 N        2.700    -0.160    24.457     7.345
    47   6 C        2.736     0.230    23.168     7.881
    48   7 N        2.655    -0.229    26.015     7.575
    49   7 N        2.654    -0.233    26.104     7.588
    50   1 H        0.856     0.194     1.137     1.671
    51   1 H        0.929     0.103     1.757     2.073
    52   1 H        0.925     0.069     2.097     2.265
    53   1 H        0.925     0.059     2.206     2.323
    54   1 H        0.924     0.072     2.059     2.244
    55   1 H        0.924     0.062     2.178     2.308
    56   1 H        0.925     0.043     2.414     2.430
    57   1 H        0.925     0.084     1.940     2.178
    58   1 H        0.860     0.216     1.026     1.587
    59   1 H        0.860     0.235     0.946     1.523
    60   1 H        0.860     0.236     0.941     1.520
    61   1 H        0.860     0.238     0.930     1.511
    62   1 H        0.860     0.240     0.922     1.504
    63   7 N        2.714    -0.182    24.949     7.418
    64   6 C        3.816     0.025    20.139     6.387
    65   6 C        2.770     0.265    22.537     7.775
    66   8 O        0.857    -0.417    22.018     6.291
    67   6 C        3.814    -0.076    21.933     6.666
    68   6 C        3.088     0.060    26.549     8.446
    69   7 N        2.850    -0.060    22.403     7.030
    70   6 C        3.054     0.043    26.991     8.520
    71   6 C        3.032     0.107    25.600     8.299
    72   7 N        1.981    -0.242    27.142     7.726
    73   1 H        0.859     0.184     1.189     1.708
    74   1 H        0.929     0.098     1.801     2.098
    75   1 H        0.924     0.081     1.972     2.196
    76   1 H        0.924     0.065     2.138     2.287
    77   1 H        0.861     0.185     1.188     1.708
    78   1 H        0.924     0.070     2.083     2.257
    79   1 H        0.925     0.052     2.300     2.372
    80   6 C        3.608     0.080    19.755     6.420
    81   6 C        2.687     0.360    20.885     7.479
    82   8 O        0.857    -0.418    22.048     6.295
    83   8 O        0.854    -0.483    23.417     6.488
    84   9 F        0.783    -0.262    11.892     4.073
    85   1 H        0.925     0.070     2.088     2.260
    86   1 H        0.925     0.042     2.428     2.437
    87   6 C        2.756     0.298    21.951     7.672
    88   8 O        0.868    -0.474    23.219     6.461
    89   6 C        3.778    -0.150    23.429     6.896
    90   1 H        0.924     0.090     1.875     2.141
    91   1 H        0.925     0.092     1.861     2.133
    92   1 H        0.925     0.061     2.183     2.311
    93   6 C        2.755     0.288    22.113     7.700
    94   8 O        0.864    -0.419    22.069     6.299
    95   6 C        3.788    -0.149    23.389     6.888
    96   1 H        0.924     0.058     2.223     2.332
    97   1 H        0.925     0.088     1.897     2.154
    98   1 H        0.924     0.088     1.901     2.156
    99   6 C        2.764     0.282    22.229     7.721
   100   8 O        0.861    -0.433    22.358     6.340
   101   6 C        3.787    -0.144    23.288     6.873
   102   1 H        0.924     0.101     1.774     2.083
   103   1 H        0.925     0.101     1.772     2.082
   104   1 H        0.924     0.053     2.284     2.364
   105   7 N        2.681    -0.127    23.761     7.240
   106   1 H        0.857     0.196     1.128     1.664
   107   6 C        3.696    -0.050    21.643     6.655
   108   1 H        0.925     0.079     1.991     2.207
   109   1 H        0.925     0.073     2.049     2.239
   110   1 H        0.925     0.089     1.889     2.149
   111   7 N        2.685    -0.144    24.128     7.295
   112   1 H        0.860     0.214     1.036     1.594
   113   6 C        3.717    -0.048    21.555     6.633
   114   1 H        0.925     0.070     2.089     2.260
   115   1 H        0.925     0.060     2.199     2.319
   116   1 H        0.924     0.092     1.864     2.135
   117   7 N        2.685    -0.141    24.051     7.284
   118   1 H        0.859     0.181     1.206     1.721
   119   6 C        3.699    -0.043    21.511     6.633
   120   1 H        0.925     0.076     2.019     2.222
   121   1 H        0.925     0.063     2.159     2.298
   122   1 H        0.924     0.078     2.003     2.213

 Mol. C6AA /au·bohr⁶  :     134168.899542
 Mol. C8AA /au·bohr⁸  :    2947783.337804
 Mol. α(0) /au        :        548.890840


Wiberg/Mayer (AO) data.
largest (>0.10) Wiberg bond orders for each atom

 ---------------------------------------------------------------------------
     #   Z sym  total        # sym  WBO       # sym  WBO       # sym  WBO
 ---------------------------------------------------------------------------
     1   7 N    3.412 --    87 C    1.227     2 C    0.981     9 H    0.935
                            88 O    0.179
     2   6 C    3.972 --     5 C    0.996     1 N    0.981    10 H    0.951
                             3 C    0.912
     3   6 C    3.947 --     4 O    1.681    15 N    1.270     2 C    0.912
     4   8 O    2.013 --     3 C    1.681    15 N    0.188
     5   6 C    3.992 --     2 C    0.996     6 C    0.977    12 H    0.942
                            11 H    0.935
     6   6 C    3.949 --     7 O    1.619     8 N    1.320     5 C    0.977
     7   8 O    1.928 --     6 C    1.619     8 N    0.193
     8   7 N    3.418 --     6 C    1.320    14 H    0.937    13 H    0.921
                             7 O    0.193
     9   1 H    0.965 --     1 N    0.935
    10   1 H    0.990 --     2 C    0.951
    11   1 H    0.987 --     5 C    0.935
    12   1 H    0.996 --     5 C    0.942
    13   1 H    0.959 --     8 N    0.921
    14   1 H    0.957 --     8 N    0.937
    15   7 N    3.419 --     3 C    1.270    16 C    0.955    26 H    0.910
                             4 O    0.188
    16   6 C    3.966 --    19 C    0.989    27 H    0.958    15 N    0.955
                            17 C    0.937
    17   6 C    3.963 --    18 O    1.593   105 N    1.337    16 C    0.937
    18   8 O    1.972 --    17 C    1.593   105 N    0.210
    19   6 C    3.988 --    20 C    1.005    16 C    0.989    28 H    0.972
                            29 H    0.967
    20   6 C    3.992 --    19 C    1.005    21 C    1.004    31 H    0.967
                            30 H    0.966
    21   6 C    3.950 --    20 C    1.004    22 N    0.973    33 H    0.965
                            32 H    0.960
    22   7 N    3.427 --    23 C    1.271    21 C    0.973    34 H    0.916
    23   6 C    3.977 --    25 N    1.348    24 N    1.327    22 N    1.271
    24   7 N    3.413 --    23 C    1.327    36 H    0.918    35 H    0.917
                            25 N    0.110
    25   7 N    3.427 --    23 C    1.348    37 H    0.934    38 H    0.882
                            24 N    0.110
    26   1 H    0.968 --    15 N    0.910
    27   1 H    0.995 --    16 C    0.958
    28   1 H    0.995 --    19 C    0.972
    29   1 H    0.993 --    19 C    0.967
    30   1 H    0.998 --    20 C    0.966
    31   1 H    0.994 --    20 C    0.967
    32   1 H    0.995 --    21 C    0.960
    33   1 H    0.993 --    21 C    0.965
    34   1 H    0.964 --    22 N    0.916
    35   1 H    0.945 --    24 N    0.917
    36   1 H    0.944 --    24 N    0.918
    37   1 H    0.957 --    25 N    0.934
    38   1 H    0.923 --    25 N    0.882
    39   7 N    3.398 --    93 C    1.234    40 C    0.988    50 H    0.907
                            94 O    0.171
    40   6 C    3.941 --    43 C    0.989    39 N    0.988    51 H    0.953
                            41 C    0.904
    41   6 C    3.952 --    42 O    1.643   111 N    1.330    40 C    0.904
    42   8 O    1.954 --    41 C    1.643   111 N    0.203
    43   6 C    3.987 --    44 C    0.995    40 C    0.989    53 H    0.971
                            52 H    0.963
    44   6 C    3.981 --    45 C    1.011    43 C    0.995    55 H    0.970
                            54 H    0.967
    45   6 C    3.945 --    44 C    1.011    46 N    0.965    57 H    0.956
                            56 H    0.948
    46   7 N    3.450 --    47 C    1.301    45 C    0.965    58 H    0.920
                            49 N    0.103    48 N    0.100
    47   6 C    3.977 --    48 N    1.324    49 N    1.320    46 N    1.301
    48   7 N    3.413 --    47 C    1.324    60 H    0.924    59 H    0.919
                            49 N    0.104    46 N    0.100
    49   7 N    3.409 --    47 C    1.320    61 H    0.923    62 H    0.921
                            48 N    0.104    46 N    0.103
    50   1 H    0.962 --    39 N    0.907
    51   1 H    0.987 --    40 C    0.953
    52   1 H    0.995 --    43 C    0.963
    53   1 H    0.996 --    43 C    0.971
    54   1 H    0.994 --    44 C    0.967
    55   1 H    0.996 --    44 C    0.970
    56   1 H    0.998 --    45 C    0.948
    57   1 H    0.993 --    45 C    0.956
    58   1 H    0.953 --    46 N    0.920
    59   1 H    0.945 --    48 N    0.919
    60   1 H    0.944 --    48 N    0.924
    61   1 H    0.943 --    49 N    0.923
    62   1 H    0.942 --    49 N    0.921
    63   7 N    3.425 --    99 C    1.258    64 C    0.972    73 H    0.923
                           100 O    0.168
    64   6 C    3.945 --    63 N    0.972    67 C    0.958    74 H    0.952
                            65 C    0.948
    65   6 C    3.954 --    66 O    1.641   117 N    1.286    64 C    0.948
    66   8 O    1.966 --    65 C    1.641   117 N    0.196
    67   6 C    3.986 --    68 C    1.019    76 H    0.971    64 C    0.958
                            75 H    0.949
    68   6 C    3.897 --    70 C    1.483    69 N    1.198    67 C    1.019
    69   7 N    3.614 --    71 C    1.291    68 C    1.198    77 H    0.936
                            72 N    0.105
    70   6 C    3.928 --    68 C    1.483    72 N    1.299    78 H    0.965
    71   6 C    3.924 --    72 N    1.508    69 N    1.291    79 H    0.962
    72   7 N    3.003 --    71 C    1.508    70 C    1.299    69 N    0.105
    73   1 H    0.965 --    63 N    0.923
    74   1 H    0.989 --    64 C    0.952
    75   1 H    0.986 --    67 C    0.949
    76   1 H    0.995 --    67 C    0.971
    77   1 H    0.965 --    69 N    0.936
    78   1 H    0.994 --    70 C    0.965
    79   1 H    0.997 --    71 C    0.962
    80   6 C    3.872 --    85 H    0.961    86 H    0.946    81 C    0.932
                            84 F    0.921
    81   6 C    3.947 --    82 O    1.658    83 O    1.336    80 C    0.932
    82   8 O    1.986 --    81 C    1.658    83 O    0.225
    83   8 O    1.726 --    81 C    1.336    82 O    0.225
    84   9 F    1.003 --    80 C    0.921
    85   1 H    0.995 --    80 C    0.961
    86   1 H    0.998 --    80 C    0.946
    87   6 C    3.951 --    88 O    1.644     1 N    1.227    89 C    1.036
    88   8 O    1.959 --    87 C    1.644     1 N    0.179
    89   6 C    3.993 --    87 C    1.036    90 H    0.968    92 H    0.967
                            91 H    0.942
    90   1 H    0.992 --    89 C    0.968
    91   1 H    0.991 --    89 C    0.942
    92   1 H    0.996 --    89 C    0.967
    93   6 C    3.953 --    94 O    1.653    39 N    1.234    95 C    1.023
    94   8 O    1.936 --    93 C    1.653    39 N    0.171
    95   6 C    3.980 --    93 C    1.023    96 H    0.969    98 H    0.954
                            97 H    0.953
    96   1 H    0.995 --    95 C    0.969
    97   1 H    0.992 --    95 C    0.953
    98   1 H    0.992 --    95 C    0.954
    99   6 C    3.950 --   100 O    1.613    63 N    1.258   101 C    1.034
   100   8 O    1.895 --    99 C    1.613    63 N    0.168
   101   6 C    3.974 --    99 C    1.034   104 H    0.971   103 H    0.953
                           102 H    0.942
   102   1 H    0.989 --   101 C    0.942
   103   1 H    0.989 --   101 C    0.953
   104   1 H    0.996 --   101 C    0.971
   105   7 N    3.523 --    17 C    1.337   107 C    1.015   106 H    0.920
                            18 O    0.210
   106   1 H    0.962 --   105 N    0.920
   107   6 C    3.952 --   105 N    1.015   110 H    0.970   109 H    0.966
                           108 H    0.966
   108   1 H    0.994 --   107 C    0.966
   109   1 H    0.994 --   107 C    0.966
   110   1 H    0.992 --   107 C    0.970
   111   7 N    3.487 --    41 C    1.330   113 C    1.010   112 H    0.897
                            42 O    0.203
   112   1 H    0.954 --   111 N    0.897
   113   6 C    3.953 --   111 N    1.010   115 H    0.980   116 H    0.968
                           114 H    0.966
   114   1 H    0.994 --   113 C    0.966
   115   1 H    0.995 --   113 C    0.980
   116   1 H    0.991 --   113 C    0.968
   117   7 N    3.468 --    65 C    1.286   119 C    1.015   118 H    0.926
                            66 O    0.196
   118   1 H    0.967 --   117 N    0.926
   119   6 C    3.956 --   117 N    1.015   121 H    0.977   122 H    0.972
                           120 H    0.966
   120   1 H    0.993 --   119 C    0.966
   121   1 H    0.995 --   119 C    0.977
   122   1 H    0.994 --   119 C    0.972
 ---------------------------------------------------------------------------

Topologies differ in bond orders
Writing corrected topology to xtbtopo.mol

molecular dipole:
                 x           y           z       tot (Debye)
 q only:       11.008     -28.571     134.949
   full:        9.570     -29.909     136.331     355.594
molecular quadrupole (traceless):
                xx          xy          yy          xz          yz          zz
 q only:    -4634.433    -139.022   -4167.371    1120.707   -2798.221    8801.804
  q+dip:    -4739.636    -117.913   -4216.178     988.992   -2952.898    8955.814
   full:    -4739.738    -117.654   -4218.420     988.678   -2951.839    8958.157


           -------------------------------------------------
          | TOTAL ENERGY             -193.565322915757 Eh   |
          | GRADIENT NORM               0.390698045745 Eh/α |
          | HOMO-LUMO GAP               1.015255567225 eV   |
           -------------------------------------------------

------------------------------------------------------------------------
 * finished run on 2024/03/04 at 14:02:06.662     
------------------------------------------------------------------------
 total:
 * wall-time:     0 d,  0 h,  0 min,  1.325 sec
 *  cpu-time:     0 d,  0 h,  0 min,  1.279 sec
 * ratio c/w:     0.966 speedup
 SCF:
 * wall-time:     0 d,  0 h,  0 min,  1.180 sec
 *  cpu-time:     0 d,  0 h,  0 min,  1.177 sec
 * ratio c/w:     0.998 speedup

