      -----------------------------------------------------------      
     |                   =====================                   |     
     |                           x T B                           |     
     |                   =====================                   |     
     |                         S. Grimme                         |     
     |          Mulliken Center for Theoretical Chemistry        |     
     |                    University of Bonn                     |     
      -----------------------------------------------------------      

   * xtb version 6.6.1 (8d0f1dd) compiled by 'stahn@M-Bot' on 2023-08-01

   xtb is free software: you can redistribute it and/or modify it under
   the terms of the GNU Lesser General Public License as published by
   the Free Software Foundation, either version 3 of the License, or
   (at your option) any later version.
   
   xtb is distributed in the hope that it will be useful,
   but WITHOUT ANY WARRANTY; without even the implied warranty of
   MERCHANTABILITY or FITNESS FOR A PARTICULAR PURPOSE.  See the
   GNU Lesser General Public License for more details.
   
   Cite this work as:
   * C. Bannwarth, E. Caldeweyher, S. Ehlert, A. Hansen, P. Pracht,
     J. Seibert, S. Spicher, S. Grimme, WIREs Comput. Mol. Sci., 2020, 11,
     e01493. DOI: 10.1002/wcms.1493
   
   for GFN2-xTB:
   * C. Bannwarth, S. Ehlert and S. Grimme., J. Chem. Theory Comput., 2019,
     15, 1652-1671. DOI: 10.1021/acs.jctc.8b01176
   for GFN1-xTB:
   * S. Grimme, C. Bannwarth, P. Shushkov, J. Chem. Theory Comput., 2017,
     13, 1989-2009. DOI: 10.1021/acs.jctc.7b00118
   for GFN0-xTB:
   * P. Pracht, E. Caldeweyher, S. Ehlert, S. Grimme, ChemRxiv, 2019, preprint.
     DOI: 10.26434/chemrxiv.8326202.v1
   for GFN-FF:
   * S. Spicher and S. Grimme, Angew. Chem. Int. Ed., 2020, 59, 15665-15673.
     DOI: 10.1002/anie.202004239
   
   for ALPB and GBSA implicit solvation:
   * S. Ehlert, M. Stahn, S. Spicher, S. Grimme, J. Chem. Theory Comput.,
     2021, 17, 4250-4261. DOI: 10.1021/acs.jctc.1c00471
   
   for DFT-D4:
   * E. Caldeweyher, C. Bannwarth and S. Grimme, J. Chem. Phys., 2017,
     147, 034112. DOI: 10.1063/1.4993215
   * E. Caldeweyher, S. Ehlert, A. Hansen, H. Neugebauer, S. Spicher,
     C. Bannwarth and S. Grimme, J. Chem. Phys., 2019, 150, 154122.
     DOI: 10.1063/1.5090222
   * E. Caldeweyher, J.-M. Mewes, S. Ehlert and S. Grimme, Phys. Chem. Chem. Phys.
     2020, 22, 8499-8512. DOI: 10.1039/D0CP00502A
   
   for sTDA-xTB:
   * S. Grimme and C. Bannwarth, J. Chem. Phys., 2016, 145, 054103.
     DOI: 10.1063/1.4959605
   
   in the mass-spec context:
   * V. Asgeirsson, C. Bauer and S. Grimme, Chem. Sci., 2017, 8, 4879.
     DOI: 10.1039/c7sc00601b
   * J. Koopman and S. Grimme, ACS Omega 2019, 4, 12, 15120-15133.
     DOI: 10.1021/acsomega.9b02011
   
   for metadynamics refer to:
   * S. Grimme, J. Chem. Theory Comput., 2019, 155, 2847-2862
     DOI: 10.1021/acs.jctc.9b00143
   
   for SPH calculations refer to:
   * S. Spicher and S. Grimme, J. Chem. Theory Comput., 2021, 17, 1701-1714
     DOI: 10.1021/acs.jctc.0c01306
   
   with help from (in alphabetical order)
   P. Atkinson, C. Bannwarth, F. Bohle, G. Brandenburg, E. Caldeweyher
   M. Checinski, S. Dohm, S. Ehlert, S. Ehrlich, I. Gerasimov, C. Hölzer
   A. Katbashev, J. Koopman, C. Lavigne, S. Lehtola, F. März, M. Müller,
   F. Musil, H. Neugebauer, J. Pisarek, C. Plett, P. Pracht, F. Pultar,
   J. Seibert, P. Shushkov, S. Spicher, M. Stahn, M. Steiner, T. Strunk,
   J. Stückrath, T. Rose, and J. Unsleber
   
 * started run on 2024/03/04 at 04:13:57.564     

           -------------------------------------------------
          |                Calculation Setup                |
           -------------------------------------------------

          program call               : /home/jurichc/xtb-6.6.1/bin/xtb --chrg -2 --iterations 1000 --parallel 1 --norestart --input /panfs/accrepfs.vampire/data/yang_lab/jurichc/enzy_rcd_benchmarking/enzy_rcd_no_qm/1nbh/QM_OPT/xtb_settings.inp --opt normal /panfs/accrepfs.vampire/data/yang_lab/jurichc/enzy_rcd_benchmarking/enzy_rcd_no_qm/1nbh/QM_OPT/xtb_coords.mol
          hostname                   : cn1430
          coordinate file            : /panfs/accrepfs.vampire/data/yang_lab/jurichc/enzy_rcd_benchmarking/enzy_rcd_no_qm/1nbh/QM_OPT/xtb_coords.mol
          omp threads                :                     1

   ID    Z sym.   atoms
    1    7 N      1, 21, 29, 45, 55, 62, 74, 81, 88, 96, 112, 119, 126, 137,
                  143, 146, 154, 174, 202, 211, 213, 216, 217, 219, 311, 317,
                  323, 329, 335, 341, 347, 353, 359, 365
    2    6 C      2, 3, 5-11, 22, 23, 25-28, 30-34, 46, 47, 49, 56, 57, 63,
                  64, 66, 67, 75, 76, 78, 79, 89, 90, 92-95, 97-101, 113,
                  114, 116, 117, 127, 128, 130, 138, 139, 141, 142, 144, 145,
                  155, 156, 158-164, 175, 176, 178-184, 194, 196-199, 203,
                  204, 206-208, 212, 214, 215, 218, 220, 244, 247, 251, 253,
                  257, 259, 263, 265, 269, 271, 275, 277, 281, 283, 287, 289,
                  293, 295, 299, 301, 305, 307, 313, 319, 325, 331, 337, 343,
                  349, 355, 361, 367
    3    8 O      4, 12, 24, 48, 58, 65, 68, 69, 77, 80, 91, 115, 118, 129,
                  131, 140, 157, 165, 177, 185, 200, 201, 205, 209, 210, 245,
                  246, 252, 258, 264, 270, 276, 282, 288, 294, 300, 306
    4    1 H      13-20, 35-44, 50-54, 59-61, 70-73, 82-87, 102-111, 120-125,
                  132-136, 147-153, 166-173, 186-193, 221-243, 248-250,
                  254-256, 260-262, 266-268, 272-274, 278-280, 284-286,
                  290-292, 296-298, 302-304, 308-310, 312, 314-316, 318,
                  320-322, 324, 326-328, 330, 332-334, 336, 338-340, 342,
                  344-346, 348, 350-352, 354, 356-358, 360, 362-364, 366,
                  368-370
    5   16 S      195
constraining bond 13 1 to    1.0110000 Å, actual value:    1.0113764 Å
constraining bond 14 2 to    1.0980000 Å, actual value:    1.0978311 Å
constraining bond 15 5 to    1.0900000 Å, actual value:    1.0902579 Å
constraining bond 16 5 to    1.0900000 Å, actual value:    1.0899111 Å
constraining bond 17 7 to    1.0900000 Å, actual value:    1.0902464 Å
constraining bond 18 8 to    1.0890000 Å, actual value:    1.0892806 Å
constraining bond 19 9 to    1.0890000 Å, actual value:    1.0892847 Å
constraining bond 20 10 to    1.0900000 Å, actual value:    1.0902592 Å
constraining bond 35 21 to    1.0100000 Å, actual value:    1.0096258 Å
constraining bond 36 22 to    1.0970000 Å, actual value:    1.0967831 Å
constraining bond 37 25 to    1.0940000 Å, actual value:    1.0940581 Å
constraining bond 38 25 to    1.0920000 Å, actual value:    1.0920322 Å
constraining bond 39 27 to    1.0780000 Å, actual value:    1.0779338 Å
constraining bond 40 29 to    1.0190000 Å, actual value:    1.0185780 Å
constraining bond 41 31 to    1.0860000 Å, actual value:    1.0859255 Å
constraining bond 42 32 to    1.0810000 Å, actual value:    1.0808211 Å
constraining bond 43 33 to    1.0830000 Å, actual value:    1.0830010 Å
constraining bond 44 34 to    1.0810000 Å, actual value:    1.0811745 Å
constraining bond 50 45 to    1.0070000 Å, actual value:    1.0073982 Å
constraining bond 51 46 to    1.0970000 Å, actual value:    1.0967576 Å
constraining bond 52 49 to    1.0850000 Å, actual value:    1.0854240 Å
constraining bond 53 49 to    1.0870000 Å, actual value:    1.0865598 Å
constraining bond 54 49 to    1.0880000 Å, actual value:    1.0884132 Å
constraining bond 59 55 to    1.0190000 Å, actual value:    1.0193303 Å
constraining bond 60 56 to    1.0900000 Å, actual value:    1.0904628 Å
constraining bond 61 56 to    1.0940000 Å, actual value:    1.0935036 Å
constraining bond 70 62 to    1.0120000 Å, actual value:    1.0120283 Å
constraining bond 71 63 to    1.0950000 Å, actual value:    1.0952708 Å
constraining bond 72 66 to    1.0900000 Å, actual value:    1.0900029 Å
constraining bond 73 66 to    1.0900000 Å, actual value:    1.0904949 Å
constraining bond 82 74 to    1.0100000 Å, actual value:    1.0097461 Å
constraining bond 83 75 to    1.0940000 Å, actual value:    1.0940801 Å
constraining bond 84 78 to    1.0920000 Å, actual value:    1.0917295 Å
constraining bond 85 78 to    1.0900000 Å, actual value:    1.0898597 Å
constraining bond 86 81 to    1.0000000 Å, actual value:    1.0004225 Å
constraining bond 87 81 to    0.9990000 Å, actual value:    0.9988945 Å
constraining bond 102 88 to    1.0180000 Å, actual value:    1.0184705 Å
constraining bond 103 89 to    1.0940000 Å, actual value:    1.0941824 Å
constraining bond 104 92 to    1.0910000 Å, actual value:    1.0907714 Å
constraining bond 105 92 to    1.0890000 Å, actual value:    1.0892209 Å
constraining bond 106 94 to    1.0880000 Å, actual value:    1.0878999 Å
constraining bond 107 96 to    1.0100000 Å, actual value:    1.0100956 Å
constraining bond 108 98 to    1.0900000 Å, actual value:    1.0896482 Å
constraining bond 109 99 to    1.0900000 Å, actual value:    1.0898836 Å
constraining bond 110 100 to    1.0900000 Å, actual value:    1.0904775 Å
constraining bond 111 101 to    1.0900000 Å, actual value:    1.0904546 Å
constraining bond 120 112 to    1.0110000 Å, actual value:    1.0112033 Å
constraining bond 121 113 to    1.0970000 Å, actual value:    1.0972088 Å
constraining bond 122 116 to    1.0910000 Å, actual value:    1.0906792 Å
constraining bond 123 116 to    1.0910000 Å, actual value:    1.0907998 Å
constraining bond 124 119 to    1.0010000 Å, actual value:    1.0009541 Å
constraining bond 125 119 to    1.0000000 Å, actual value:    0.9996510 Å
constraining bond 132 126 to    1.0130000 Å, actual value:    1.0134403 Å
constraining bond 133 127 to    1.0950000 Å, actual value:    1.0949818 Å
constraining bond 134 130 to    1.0990000 Å, actual value:    1.0985191 Å
constraining bond 135 130 to    1.0930000 Å, actual value:    1.0925320 Å
constraining bond 136 131 to    0.9710000 Å, actual value:    0.9709671 Å
constraining bond 147 137 to    1.0100000 Å, actual value:    1.0099892 Å
constraining bond 148 138 to    1.0900000 Å, actual value:    1.0900074 Å
constraining bond 149 141 to    1.0900000 Å, actual value:    1.0899295 Å
constraining bond 150 141 to    1.0900000 Å, actual value:    1.0901891 Å
constraining bond 151 143 to    1.0000000 Å, actual value:    1.0004345 Å
constraining bond 152 144 to    1.0900000 Å, actual value:    1.0902886 Å
constraining bond 153 145 to    1.0900000 Å, actual value:    1.0901661 Å
constraining bond 166 154 to    1.0080000 Å, actual value:    1.0076771 Å
constraining bond 167 155 to    1.0940000 Å, actual value:    1.0937862 Å
constraining bond 168 158 to    1.0910000 Å, actual value:    1.0905302 Å
constraining bond 169 158 to    1.0900000 Å, actual value:    1.0895629 Å
constraining bond 170 160 to    1.0900000 Å, actual value:    1.0901749 Å
constraining bond 171 161 to    1.0910000 Å, actual value:    1.0907531 Å
constraining bond 172 162 to    1.0900000 Å, actual value:    1.0895220 Å
constraining bond 173 163 to    1.0900000 Å, actual value:    1.0900946 Å
constraining bond 186 174 to    1.0130000 Å, actual value:    1.0127473 Å
constraining bond 187 175 to    1.1000000 Å, actual value:    1.0996009 Å
constraining bond 188 178 to    1.0910000 Å, actual value:    1.0913813 Å
constraining bond 189 178 to    1.0900000 Å, actual value:    1.0897349 Å
constraining bond 190 180 to    1.0900000 Å, actual value:    1.0895693 Å
constraining bond 191 181 to    1.0910000 Å, actual value:    1.0905289 Å
constraining bond 192 182 to    1.0910000 Å, actual value:    1.0909318 Å
constraining bond 193 183 to    1.0900000 Å, actual value:    1.0902221 Å
constraining bond 221 194 to    1.0900000 Å, actual value:    1.0895908 Å
constraining bond 222 194 to    1.0900000 Å, actual value:    1.0895697 Å
constraining bond 223 196 to    1.0900000 Å, actual value:    1.0898538 Å
constraining bond 224 196 to    1.0900000 Å, actual value:    1.0901010 Å
constraining bond 225 197 to    1.0920000 Å, actual value:    1.0917844 Å
constraining bond 226 197 to    1.0930000 Å, actual value:    1.0933463 Å
constraining bond 227 198 to    1.0940000 Å, actual value:    1.0938424 Å
constraining bond 228 202 to    1.0290000 Å, actual value:    1.0291575 Å
constraining bond 229 202 to    1.1130000 Å, actual value:    1.1133410 Å
constraining bond 230 202 to    1.0190000 Å, actual value:    1.0193278 Å
constraining bond 231 203 to    1.0850000 Å, actual value:    1.0848508 Å
constraining bond 232 203 to    1.0870000 Å, actual value:    1.0869247 Å
constraining bond 233 203 to    1.0900000 Å, actual value:    1.0901308 Å
constraining bond 234 204 to    1.1010000 Å, actual value:    1.1006277 Å
constraining bond 235 206 to    1.1030000 Å, actual value:    1.1030055 Å
constraining bond 236 207 to    1.0960000 Å, actual value:    1.0956374 Å
constraining bond 237 208 to    1.0970000 Å, actual value:    1.0971469 Å
constraining bond 238 209 to    0.9760000 Å, actual value:    0.9756829 Å
constraining bond 239 210 to    0.9780000 Å, actual value:    0.9780026 Å
constraining bond 240 212 to    1.0730000 Å, actual value:    1.0727722 Å
constraining bond 241 216 to    1.0110000 Å, actual value:    1.0111460 Å
constraining bond 242 216 to    1.0090000 Å, actual value:    1.0091071 Å
constraining bond 243 218 to    1.0830000 Å, actual value:    1.0834308 Å
constraining bond 248 247 to    1.0860000 Å, actual value:    1.0859697 Å
constraining bond 249 247 to    1.0890000 Å, actual value:    1.0887319 Å
constraining bond 250 247 to    1.0880000 Å, actual value:    1.0875529 Å
constraining bond 254 253 to    1.0910000 Å, actual value:    1.0907709 Å
constraining bond 255 253 to    1.0900000 Å, actual value:    1.0901441 Å
constraining bond 256 253 to    1.0900000 Å, actual value:    1.0903294 Å
constraining bond 260 259 to    1.0910000 Å, actual value:    1.0905440 Å
constraining bond 261 259 to    1.0900000 Å, actual value:    1.0910271 Å
constraining bond 262 259 to    1.0900000 Å, actual value:    1.0898308 Å
constraining bond 266 265 to    1.0910000 Å, actual value:    1.0899790 Å
constraining bond 267 265 to    1.0900000 Å, actual value:    1.0909474 Å
constraining bond 268 265 to    1.0900000 Å, actual value:    1.0904262 Å
constraining bond 272 325 to    1.0680000 Å, actual value:    1.0680867 Å
constraining bond 273 325 to    1.0860000 Å, actual value:    1.0864425 Å
constraining bond 274 323 to    0.5530000 Å, actual value:    0.5532288 Å
constraining bond 278 277 to    1.0910000 Å, actual value:    1.0908951 Å
constraining bond 279 277 to    1.0900000 Å, actual value:    1.0898689 Å
constraining bond 280 277 to    1.0900000 Å, actual value:    1.0901267 Å
constraining bond 284 283 to    1.0910000 Å, actual value:    1.0899148 Å
constraining bond 285 283 to    1.0900000 Å, actual value:    1.0906760 Å
constraining bond 286 283 to    1.0900000 Å, actual value:    1.0893192 Å
constraining bond 290 289 to    1.0910000 Å, actual value:    1.0911903 Å
constraining bond 291 289 to    1.0900000 Å, actual value:    1.0896762 Å
constraining bond 292 289 to    1.0900000 Å, actual value:    1.0911302 Å
constraining bond 296 295 to    1.0910000 Å, actual value:    1.0907709 Å
constraining bond 297 295 to    1.0900000 Å, actual value:    1.0898391 Å
constraining bond 298 295 to    1.0900000 Å, actual value:    1.0897363 Å
constraining bond 302 301 to    1.0910000 Å, actual value:    1.0909084 Å
constraining bond 303 301 to    1.0900000 Å, actual value:    1.0898093 Å
constraining bond 304 301 to    1.0900000 Å, actual value:    1.0901909 Å
constraining bond 308 307 to    1.0910000 Å, actual value:    1.0897872 Å
constraining bond 309 307 to    1.0900000 Å, actual value:    1.0898726 Å
constraining bond 310 307 to    1.0900000 Å, actual value:    1.0907269 Å
constraining bond 312 311 to    1.0100000 Å, actual value:    1.0103317 Å
constraining bond 314 313 to    1.0900000 Å, actual value:    1.0904766 Å
constraining bond 315 313 to    1.0900000 Å, actual value:    1.0899240 Å
constraining bond 316 313 to    1.0900000 Å, actual value:    1.0894536 Å
constraining bond 318 317 to    1.0100000 Å, actual value:    1.0098164 Å
constraining bond 320 319 to    1.0900000 Å, actual value:    1.0897395 Å
constraining bond 321 319 to    1.0900000 Å, actual value:    1.0892884 Å
constraining bond 322 319 to    1.0900000 Å, actual value:    1.0903753 Å
constraining bond 324 323 to    1.0090000 Å, actual value:    1.0087558 Å
constraining bond 326 325 to    1.0900000 Å, actual value:    1.0902125 Å
constraining bond 327 271 to    0.9850000 Å, actual value:    0.9843674 Å
constraining bond 328 271 to    1.0300000 Å, actual value:    1.0298821 Å
constraining bond 330 329 to    1.0100000 Å, actual value:    1.0098808 Å
constraining bond 332 331 to    1.0900000 Å, actual value:    1.0894367 Å
constraining bond 333 331 to    1.0900000 Å, actual value:    1.0894959 Å
constraining bond 334 331 to    1.0900000 Å, actual value:    1.0904702 Å
constraining bond 336 335 to    1.0100000 Å, actual value:    1.0104149 Å
constraining bond 338 337 to    1.0900000 Å, actual value:    1.0895216 Å
constraining bond 339 337 to    1.0900000 Å, actual value:    1.0898717 Å
constraining bond 340 337 to    1.0900000 Å, actual value:    1.0901120 Å
constraining bond 342 341 to    1.0100000 Å, actual value:    1.0101634 Å
constraining bond 344 343 to    1.0900000 Å, actual value:    1.0900597 Å
constraining bond 345 343 to    1.0900000 Å, actual value:    1.0897129 Å
constraining bond 346 343 to    1.0900000 Å, actual value:    1.0900446 Å
constraining bond 348 347 to    1.0100000 Å, actual value:    1.0098050 Å
constraining bond 350 349 to    1.0900000 Å, actual value:    1.0901111 Å
constraining bond 351 349 to    1.0900000 Å, actual value:    1.0894357 Å
constraining bond 352 349 to    1.0900000 Å, actual value:    1.0895569 Å
constraining bond 354 353 to    1.0090000 Å, actual value:    1.0092127 Å
constraining bond 356 355 to    1.0900000 Å, actual value:    1.0894050 Å
constraining bond 357 355 to    1.0900000 Å, actual value:    1.0903766 Å
constraining bond 358 355 to    1.0900000 Å, actual value:    1.0900038 Å
constraining bond 360 359 to    1.0100000 Å, actual value:    1.0095584 Å
constraining bond 362 361 to    1.0900000 Å, actual value:    1.0894793 Å
constraining bond 363 361 to    1.0900000 Å, actual value:    1.0892659 Å
constraining bond 364 361 to    1.0900000 Å, actual value:    1.0899882 Å
constraining bond 366 365 to    1.0100000 Å, actual value:    1.0101105 Å
constraining bond 368 367 to    1.0900000 Å, actual value:    1.0899418 Å
constraining bond 369 367 to    1.0900000 Å, actual value:    1.0899455 Å
constraining bond 370 367 to    1.0900000 Å, actual value:    1.0898079 Å

molecular fragmentation (1/2 indicates fragments):
111111111111111111112222222222222222222222222222222222222222222222222222
222222222222222222222222222222222222222222222222222222222222222222222222
222222222222222222222222222222222222222222222222222222222222222222222222
222222222222222222222222222222222211111122222222222222222222222222222222
222222222222222222222211111122222222222222222222222222222222222222222222
2222222222
# atoms in fragment 1/2:    32   338
 fragment masses (1/2) :      235.26     2507.72
CMA distance (Bohr)    :  15.305
constraining FC (au)   :  0.0500
########################################################################
[WARNING] Please study the warnings concerning your input carefully
-1- prog_main: Charge in sdf/mol input was overwritten
########################################################################

           -------------------------------------------------
          |                 G F N 2 - x T B                 |
           -------------------------------------------------

        Reference                      10.1021/acs.jctc.8b01176
      * Hamiltonian:
        H0-scaling (s, p, d)           1.850000    2.230000    2.230000
        zeta-weighting                 0.500000
      * Dispersion:
        s8                             2.700000
        a1                             0.520000
        a2                             5.000000
        s9                             5.000000
      * Repulsion:
        kExp                           1.500000    1.000000
        rExp                           1.000000
      * Coulomb:
        alpha                          2.000000
        third order                    shell-resolved
        anisotropic                    true
        a3                             3.000000
        a5                             4.000000
        cn-shift                       1.200000
        cn-exp                         4.000000
        max-rad                        5.000000


          ...................................................
          :                      SETUP                      :
          :.................................................:
          :  # basis functions                 958          :
          :  # atomic orbitals                 957          :
          :  # shells                          565          :
          :  # electrons                      1064          :
          :  max. iterations                  1000          :
          :  Hamiltonian                  GFN2-xTB          :
          :  restarted?                      false          :
          :  GBSA solvation                  false          :
          :  PC potential                    false          :
          :  electronic temp.          300.0000000     K    :
          :  accuracy                    1.0000000          :
          :  -> integral cutoff          0.2500000E+02      :
          :  -> integral neglect         0.1000000E-07      :
          :  -> SCF convergence          0.1000000E-05 Eh   :
          :  -> wf. convergence          0.1000000E-03 e    :
          :  Broyden damping             0.4000000          :
          ...................................................

 iter      E             dE          RMSdq      gap      omega  full diag
   1   -601.3512839 -0.601351E+03  0.472E+00    0.18       0.0  T
   2   -544.8063999  0.565449E+02  0.583E+00    0.05       1.0  T
   3   -494.6882410  0.501182E+02  0.644E+00    0.00       1.0  T
   4   -564.6388218 -0.699506E+02  0.510E+00    0.09       1.0  T
   5   -606.9003659 -0.422615E+02  0.285E+00    0.05       1.0  T
   6   -606.0989358  0.801430E+00  0.239E+00    0.18       1.0  T
   7   -606.2134487 -0.114513E+00  0.236E+00    0.08       1.0  T
   8   -608.6088134 -0.239536E+01  0.172E+00    0.16       1.0  T
   9   -607.4277744  0.118104E+01  0.198E+00    0.20       1.0  T
  10   -609.6173052 -0.218953E+01  0.129E+00    0.05       1.0  T
  11   -609.5150936  0.102212E+00  0.110E+00    0.36       1.0  T
  12   -608.6366231  0.878471E+00  0.136E+00    0.03       1.0  T
  13   -606.8623602  0.177426E+01  0.175E+00    0.05       1.0  T
  14   -609.6544116 -0.279205E+01  0.103E+00    0.08       1.0  T
  15   -606.2019200  0.345249E+01  0.194E+00    0.38       1.0  T
  16   -608.8601347 -0.265821E+01  0.114E+00    0.11       1.0  T
  17   -607.7389765  0.112116E+01  0.164E+00    0.03       1.0  T
  18   -609.1489623 -0.140999E+01  0.102E+00    0.01       1.0  T
  19   -608.6498257  0.499137E+00  0.126E+00    0.01       1.0  T
  20   -608.8808160 -0.230990E+00  0.114E+00    0.06       1.0  T
  21   -609.3431394 -0.462323E+00  0.997E-01    0.02       1.0  T
  22   -609.7338054 -0.390666E+00  0.780E-01    0.09       1.0  T
  23   -609.4134897  0.320316E+00  0.861E-01    0.04       1.0  T
  24   -609.5461836 -0.132694E+00  0.830E-01    0.05       1.0  T
  25   -609.9188428 -0.372659E+00  0.627E-01    0.06       1.0  T
  26   -609.8065531  0.112290E+00  0.639E-01    0.07       1.0  T
  27   -609.9976794 -0.191126E+00  0.496E-01    0.01       1.0  T
  28   -610.0124457 -0.147663E-01  0.470E-01    0.02       1.0  T
  29   -610.0072524  0.519330E-02  0.466E-01    0.01       1.0  T
  30   -610.0159933 -0.874093E-02  0.440E-01    0.02       1.0  T
  31   -610.0833641 -0.673708E-01  0.273E-01    0.00       1.0  T
  32   -610.1062132 -0.228491E-01  0.241E-01    0.02       1.0  T
  33   -610.1068248 -0.611645E-03  0.233E-01    0.01       1.0  T
  34   -610.0758825  0.309423E-01  0.305E-01    0.02       1.0  T
  35   -610.1149614 -0.390789E-01  0.203E-01    0.02       1.0  T
  36   -610.1208319 -0.587052E-02  0.179E-01    0.03       1.0  T
  37   -610.0913804  0.294515E-01  0.226E-01    0.01       1.0  T
  38   -610.1211043 -0.297240E-01  0.168E-01    0.02       1.0  T
  39   -610.1232776 -0.217322E-02  0.146E-01    0.02       1.0  T
  40   -610.1279476 -0.467007E-02  0.135E-01    0.03       1.0  T
  41   -610.1296856 -0.173793E-02  0.125E-01    0.03       1.0  T
  42   -610.1305076 -0.821995E-03  0.121E-01    0.03       1.0  T
  43   -610.1309370 -0.429396E-03  0.116E-01    0.03       1.0  T
  44   -610.1320295 -0.109257E-02  0.104E-01    0.03       1.0  T
  45   -610.1318601  0.169426E-03  0.102E-01    0.03       1.0  T
  46   -610.1316288  0.231275E-03  0.101E-01    0.03       1.0  T
  47   -610.1325592 -0.930427E-03  0.968E-02    0.03       1.0  T
  48   -610.1330564 -0.497201E-03  0.931E-02    0.03       1.0  T
  49   -610.1333304 -0.273943E-03  0.912E-02    0.03       1.0  T
  50   -610.1333908 -0.604495E-04  0.901E-02    0.03       1.0  T
  51   -610.1335253 -0.134434E-03  0.882E-02    0.03       1.0  T
  52   -610.1337353 -0.210064E-03  0.853E-02    0.03       1.0  T
  53   -610.1339441 -0.208804E-03  0.817E-02    0.03       1.0  T
  54   -610.1344850 -0.540854E-03  0.738E-02    0.03       1.0  T
  55   -610.1352961 -0.811097E-03  0.630E-02    0.03       1.0  T
  56   -610.1356099 -0.313804E-03  0.585E-02    0.03       1.0  T
  57   -610.1335541  0.205584E-02  0.837E-02    0.03       1.0  T
  58   -610.1368617 -0.330761E-02  0.419E-02    0.03       1.0  T
  59   -610.1291066  0.775509E-02  0.113E-01    0.03       1.0  T
  60   -610.1380438 -0.893722E-02  0.226E-02    0.03       1.0  T
  61   -610.1382441 -0.200272E-03  0.111E-02    0.03       1.0  T
  62   -610.1302995  0.794452E-02  0.104E-01    0.03       1.0  T
  63   -610.1375509 -0.725133E-02  0.325E-02    0.03       1.0  T
  64   -610.1367858  0.765091E-03  0.451E-02    0.03       1.0  T
  65   -610.1380223 -0.123651E-02  0.190E-02    0.03       1.0  T
  66   -610.1371415  0.880781E-03  0.390E-02    0.03       1.0  T
  67   -610.1381622 -0.102072E-02  0.128E-02    0.03       1.0  T
  68   -610.1377501  0.412115E-03  0.266E-02    0.03       1.0  T
  69   -610.1382089 -0.458827E-03  0.983E-03    0.03       1.0  T
  70   -610.1380964  0.112560E-03  0.156E-02    0.03       1.0  T
  71   -610.1382455 -0.149158E-03  0.668E-03    0.03       1.0  T
  72   -610.1382284  0.171448E-04  0.815E-03    0.03       1.0  T
  73   -610.1382727 -0.443423E-04  0.256E-03    0.03       2.0  T
  74   -610.1382699  0.283908E-05  0.321E-03    0.03       1.6  T
  75   -610.1382747 -0.477801E-05  0.201E-03    0.03       2.6  T
  76   -610.1382769 -0.220876E-05  0.107E-03    0.03       4.8  T
  77   -610.1382768  0.766778E-07  0.112E-03    0.03       4.7  T
  78   -610.1382775 -0.726307E-06  0.560E-04    0.03       9.3  T
  79   -610.1382777 -0.200815E-06  0.209E-04    0.03      24.9  T

   *** convergence criteria satisfied after 79 iterations ***

         #    Occupation            Energy/Eh            Energy/eV
      -------------------------------------------------------------
         1        2.0000           -0.9152252             -24.9045
       ...           ...                  ...                  ...
       526        1.9997           -0.1784652              -4.8563
       527        1.9987           -0.1769590              -4.8153
       528        1.9965           -0.1759822              -4.7887
       529        1.8949           -0.1727060              -4.6996
       530        1.8515           -0.1723560              -4.6900
       531        1.6091           -0.1713033              -4.6614
       532        1.5656           -0.1711768              -4.6580 (HOMO)
       533        1.0743           -0.1701004              -4.6287 (LUMO)
       534        0.0099           -0.1649169              -4.4876
       535        0.0000           -0.1577043              -4.2914
       536        0.0000           -0.1560530              -4.2464
       537        0.0000           -0.1549902              -4.2175
       ...           ...                  ...                  ...
       957                        157.4666818            4284.8865
      -------------------------------------------------------------
                  HL-Gap            0.0010764 Eh            0.0293 eV
             Fermi-level           -0.1699589 Eh           -4.6248 eV

 SCC (total)                   0 d,  0 h,  0 min, 52.497 sec
 SCC setup                      ...        0 min,  0.021 sec (  0.039%)
 Dispersion                     ...        0 min,  0.083 sec (  0.158%)
 classical contributions        ...        0 min,  0.008 sec (  0.016%)
 integral evaluation            ...        0 min,  0.463 sec (  0.882%)
 iterations                     ...        0 min, 48.792 sec ( 92.943%)
 molecular gradient             ...        0 min,  3.019 sec (  5.751%)
 printout                       ...        0 min,  0.111 sec (  0.211%)

         :::::::::::::::::::::::::::::::::::::::::::::::::::::
         ::                     SUMMARY                     ::
         :::::::::::::::::::::::::::::::::::::::::::::::::::::
         :: total energy            -554.873539656675 Eh    ::
         :: gradient norm            281.220919787405 Eh/a0 ::
         :: HOMO-LUMO gap              0.029290848894 eV    ::
         ::.................................................::
         :: SCC energy              -610.138277722720 Eh    ::
         :: -> isotropic ES            1.873333381219 Eh    ::
         :: -> anisotropic ES          0.004001971275 Eh    ::
         :: -> anisotropic XC          0.226303404998 Eh    ::
         :: -> dispersion             -0.504951336017 Eh    ::
         :: repulsion energy          55.223719659639 Eh    ::
         :: add. restraining           0.000004274852 Eh    ::
         :: total charge              -2.000000000000 e     ::
         :::::::::::::::::::::::::::::::::::::::::::::::::::::

      ----------------------------------------------------------- 
     |                   =====================                   |
     |                        A N C O P T                        |
     |                   =====================                   |
     |               Approximate Normal Coordinate               |
     |                Rational Function Optimizer                |
      ----------------------------------------------------------- 

          ...................................................
          :                      SETUP                      :
          :.................................................:
          :   optimization level            normal          :
          :   max. optcycles                  1110          :
          :   ANC micro-cycles                  20          :
          :   degrees of freedom               906          :
          :.................................................:
          :   RF solver                   davidson          :
          :   write xtbopt.log                true          :
          :   linear?                        false          :
          :   energy convergence         0.5000000E-05 Eh   :
          :   grad. convergence          0.1000000E-02 Eh/α :
          :   maxmium RF displ.          1.0000000          :
          :   Hlow (freq-cutoff)         0.1000000E-01      :
          :   Hmax (freq-cutoff)         5.0000000          :
          :   S6 in model hess.         20.0000000          :
          ...................................................

generating ANC from model Hessian ...
Using Lindh-Hessian (1995)
 Shifting diagonal of input Hessian by   9.908581511541543E-003
 Lowest  eigenvalues of input Hessian
   -0.000000   -0.000000   -0.000000   -0.000000   -0.000000   -0.000000
   -0.000000   -0.000000   -0.000000   -0.000000   -0.000000   -0.000000
   -0.000000   -0.000000   -0.000000   -0.000000   -0.000000   -0.000000
 Highest eigenvalues
    5.420200    6.342249   10.367146   12.902275  322.478218  337.058059
 

........................................................................
.............................. CYCLE    1 ..............................
........................................................................

 iter      E             dE          RMSdq      gap      omega  full diag
   1   -610.1382776 -0.610138E+03  0.411E-04    0.03       0.0  T
   2   -610.1382434  0.342505E-04  0.657E-03    0.03       1.0  T
   3   -610.1382720 -0.286444E-04  0.218E-03    0.03       2.4  T
   4   -610.1382775 -0.549114E-05  0.488E-04    0.03      10.7  T
   5   -610.1382767  0.860887E-06  0.106E-03    0.03       4.9  T
   6   -610.1382776 -0.905576E-06  0.513E-04    0.03      10.1  T
   7   -610.1382775  0.577904E-07  0.489E-04    0.03      10.6  T
     SCC iter.                  ...        0 min,  4.387 sec
     gradient                   ...        0 min,  2.914 sec
 * total energy  :  -554.8735394 Eh     change        0.2218209E-06 Eh
   gradient norm :   281.2206819 Eh/α   predicted     0.0000000E+00 (-100.00%)
   displ. norm   :     0.9911602 α      lambda       -0.2787348E+03
   maximum displ.:     0.9873114 α      in ANC's #905, #904, #844, ...

........................................................................
.............................. CYCLE    2 ..............................
........................................................................

 iter      E             dE          RMSdq      gap      omega  full diag
   1   -609.4166320 -0.609417E+03  0.156E+00    0.04       0.0  T
   2   -601.3812872  0.803534E+01  0.212E+00    0.03       1.0  T
   3   -607.8563787 -0.647509E+01  0.158E+00    0.20       1.0  T
   4   -607.5669779  0.289401E+00  0.184E+00    0.11       1.0  T
   5   -607.8543898 -0.287412E+00  0.175E+00    0.21       1.0  T
   6   -608.0255621 -0.171172E+00  0.173E+00    0.10       1.0  T
   7   -609.8159775 -0.179042E+01  0.111E+00    0.21       1.0  T
   8   -609.6372810  0.178697E+00  0.102E+00    0.15       1.0  T
   9   -609.6924686 -0.551876E-01  0.104E+00    0.08       1.0  T
  10   -608.8298843  0.862584E+00  0.120E+00    0.30       1.0  T
  11   -609.8908831 -0.106100E+01  0.957E-01    0.18       1.0  T
  12   -609.9545099 -0.636269E-01  0.848E-01    0.06       1.0  T
  13   -609.1870191  0.767491E+00  0.113E+00    0.07       1.0  T
  14   -609.8521578 -0.665139E+00  0.917E-01    0.54       1.0  T
  15   -608.6120831  0.124007E+01  0.105E+00    0.02       1.0  T
  16   -609.1643825 -0.552299E+00  0.111E+00    0.08       1.0  T
  17   -609.8486107 -0.684228E+00  0.833E-01    0.07       1.0  T
  18   -609.5942680  0.254343E+00  0.915E-01    0.01       1.0  T
  19   -609.6874199 -0.931519E-01  0.865E-01    0.01       1.0  T
  20   -609.6598438  0.275762E-01  0.971E-01    0.05       1.0  T
  21   -609.2798972  0.379947E+00  0.122E+00    0.11       1.0  T
  22   -609.4178770 -0.137980E+00  0.113E+00    0.09       1.0  T
  23   -609.2807216  0.137155E+00  0.118E+00    0.01       1.0  T
  24   -609.7553673 -0.474646E+00  0.937E-01    0.07       1.0  T
  25   -609.8900078 -0.134640E+00  0.861E-01    0.10       1.0  T
  26   -609.8925249 -0.251716E-02  0.859E-01    0.10       1.0  T
  27   -609.7381234  0.154402E+00  0.945E-01    0.07       1.0  T
  28   -609.7824129 -0.442895E-01  0.913E-01    0.08       1.0  T
  29   -609.8496537 -0.672408E-01  0.875E-01    0.09       1.0  T
  30   -609.8580840 -0.843035E-02  0.870E-01    0.09       1.0  T
  31   -609.5748457  0.283238E+00  0.104E+00    0.00       1.0  T
  32   -609.9716595 -0.396814E+00  0.793E-01    0.11       1.0  T
  33   -610.0086463 -0.369868E-01  0.769E-01    0.06       1.0  T
  34   -609.6642522  0.344394E+00  0.101E+00    0.01       1.0  T
  35   -609.7868797 -0.122627E+00  0.937E-01    0.01       1.0  T
  36   -608.9223127  0.864567E+00  0.138E+00    0.00       1.0  T
  37   -609.5697620 -0.647449E+00  0.103E+00    0.02       1.0  T
  38   -609.4383882  0.131374E+00  0.112E+00    0.03       1.0  T
  39   -609.6576116 -0.219223E+00  0.100E+00    0.00       1.0  T
  40   -609.4789262  0.178685E+00  0.112E+00    0.01       1.0  T
  41   -609.2254590  0.253467E+00  0.125E+00    0.01       1.0  T
  42   -609.6078631 -0.382404E+00  0.104E+00    0.01       1.0  T
  43   -610.0067443 -0.398881E+00  0.745E-01    0.00       1.0  T
  44   -609.8025675  0.204177E+00  0.790E-01    0.01       1.0  T
  45   -609.8092661 -0.669859E-02  0.856E-01    0.03       1.0  T
  46   -610.2630025 -0.453736E+00  0.509E-01    0.01       1.0  T
  47   -610.1569715  0.106031E+00  0.623E-01    0.01       1.0  T
  48   -610.2835259 -0.126554E+00  0.485E-01    0.02       1.0  T
  49   -610.2277420  0.557839E-01  0.545E-01    0.01       1.0  T
  50   -610.3284872 -0.100745E+00  0.409E-01    0.01       1.0  T
  51   -610.3364410 -0.795376E-02  0.381E-01    0.02       1.0  T
  52   -610.3727281 -0.362871E-01  0.337E-01    0.01       1.0  T
  53   -610.3749089 -0.218074E-02  0.318E-01    0.01       1.0  T
  54   -610.4161911 -0.412822E-01  0.256E-01    0.02       1.0  T
  55   -610.4192975 -0.310644E-02  0.238E-01    0.01       1.0  T
  56   -610.4219831 -0.268560E-02  0.234E-01    0.01       1.0  T
  57   -610.4182984  0.368472E-02  0.238E-01    0.00       1.0  T
  58   -610.4326464 -0.143480E-01  0.200E-01    0.02       1.0  T
  59   -610.3931332  0.395131E-01  0.248E-01    0.02       1.0  T
  60   -610.4213780 -0.282448E-01  0.187E-01    0.00       1.0  T
  61   -610.4099464  0.114316E-01  0.201E-01    0.01       1.0  T
  62   -610.4227409 -0.127945E-01  0.166E-01    0.00       1.0  T
  63   -610.4315310 -0.879012E-02  0.144E-01    0.00       1.0  T
  64   -610.4411162 -0.958511E-02  0.115E-01    0.01       1.0  T
  65   -610.4360699  0.504629E-02  0.130E-01    0.01       1.0  T
  66   -610.4484892 -0.124193E-01  0.774E-02    0.02       1.0  T
  67   -610.4470240  0.146516E-02  0.850E-02    0.02       1.0  T
  68   -610.4464723  0.551753E-03  0.809E-02    0.01       1.0  T
  69   -610.4468690 -0.396687E-03  0.780E-02    0.01       1.0  T
  70   -610.4469086 -0.396236E-04  0.764E-02    0.01       1.0  T
  71   -610.4482463 -0.133774E-02  0.677E-02    0.02       1.0  T
  72   -610.4487824 -0.536125E-03  0.650E-02    0.02       1.0  T
  73   -610.4505446 -0.176213E-02  0.464E-02    0.02       1.0  T
  74   -610.4510107 -0.466077E-03  0.387E-02    0.03       1.0  T
  75   -610.4507200  0.290630E-03  0.419E-02    0.03       1.0  T
  76   -610.4509741 -0.254072E-03  0.322E-02    0.03       1.0  T
  77   -610.4511184 -0.144269E-03  0.336E-02    0.03       1.0  T
  78   -610.4512130 -0.946819E-04  0.311E-02    0.02       1.0  T
  79   -610.4513815 -0.168425E-03  0.294E-02    0.02       1.0  T
  80   -610.4513449  0.365281E-04  0.288E-02    0.02       1.0  T
  81   -610.4513863 -0.413163E-04  0.273E-02    0.02       1.0  T
  82   -610.4514083 -0.220411E-04  0.262E-02    0.02       1.0  T
  83   -610.4514385 -0.301968E-04  0.236E-02    0.02       1.0  T
  84   -610.4515723 -0.133764E-03  0.189E-02    0.02       1.0  T
  85   -610.4516232 -0.509401E-04  0.161E-02    0.03       1.0  T
  86   -610.4516662 -0.429558E-04  0.126E-02    0.03       1.0  T
  87   -610.4516991 -0.329822E-04  0.970E-03    0.03       1.0  T
  88   -610.4517116 -0.124128E-04  0.765E-03    0.03       1.0  T
  89   -610.4517281 -0.165419E-04  0.551E-03    0.03       1.0  T
  90   -610.4517284 -0.304712E-06  0.477E-03    0.03       1.1  T
  91   -610.4517409 -0.124863E-04  0.233E-03    0.03       2.2  T
  92   -610.4517424 -0.149730E-05  0.153E-03    0.03       3.4  T
  93   -610.4517437 -0.134245E-05  0.768E-04    0.03       6.8  T
  94   -610.4517438 -0.409448E-07  0.688E-04    0.03       7.6  T
  95   -610.4517438  0.814020E-08  0.619E-04    0.03       8.4  T
     SCC iter.                  ...        0 min, 56.772 sec
     gradient                   ...        0 min,  2.751 sec
 * total energy  :  -600.8401889 Eh     change       -0.4596665E+02 Eh
   gradient norm :     4.8823132 Eh/α   predicted    -0.2762817E+03 ( 501.05%)
   displ. norm   :     0.6480900 α      lambda       -0.2567383E+01
   maximum displ.:     0.4921205 α      in ANC's #901, #896, #648, ...

........................................................................
.............................. CYCLE    3 ..............................
........................................................................

 iter      E             dE          RMSdq      gap      omega  full diag
   1   -610.0770625 -0.610077E+03  0.791E-01    0.05       0.0  T
   2   -605.9678473  0.410922E+01  0.212E+00    0.05       1.0  T
   3   -610.0657831 -0.409794E+01  0.795E-01    0.16       1.0  T
   4   -608.9578433  0.110794E+01  0.127E+00    0.40       1.0  T
   5   -609.9989519 -0.104111E+01  0.836E-01    0.37       1.0  T
   6   -609.9722083  0.267436E-01  0.858E-01    0.42       1.0  T
   7   -609.9603545  0.118538E-01  0.861E-01    0.33       1.0  T
   8   -609.0367460  0.923608E+00  0.117E+00    0.10       1.0  T
   9   -608.9729671  0.637789E-01  0.118E+00    0.07       1.0  T
  10   -608.9900203 -0.170532E-01  0.115E+00    0.12       1.0  T
  11   -608.2903829  0.699637E+00  0.143E+00    0.01       1.0  T
  12   -609.6066736 -0.131629E+01  0.975E-01    0.13       1.0  T
  13   -609.2272975  0.379376E+00  0.111E+00    0.05       1.0  T
  14   -609.6740357 -0.446738E+00  0.946E-01    0.01       1.0  T
  15   -610.1961244 -0.522089E+00  0.676E-01    0.12       1.0  T
  16   -609.7353956  0.460729E+00  0.897E-01    0.10       1.0  T
  17   -610.4434659 -0.708070E+00  0.509E-01    0.09       1.0  T
  18   -610.5583812 -0.114915E+00  0.397E-01    0.07       1.0  T
  19   -610.3759511  0.182430E+00  0.606E-01    0.17       1.0  T
  20   -610.3720696  0.388144E-02  0.609E-01    0.16       1.0  T
  21   -610.4377508 -0.656812E-01  0.501E-01    0.08       1.0  T
  22   -610.5967159 -0.158965E+00  0.238E-01    0.05       1.0  T
  23   -610.6274635 -0.307476E-01  0.280E-01    0.03       1.0  T
  24   -610.6217978  0.566570E-02  0.289E-01    0.03       1.0  T
  25   -610.5805281  0.412697E-01  0.362E-01    0.02       1.0  T
  26   -610.6159622 -0.354340E-01  0.288E-01    0.02       1.0  T
  27   -610.6337173 -0.177552E-01  0.241E-01    0.02       1.0  T
  28   -610.6537770 -0.200596E-01  0.188E-01    0.01       1.0  T
  29   -610.6537041  0.729022E-04  0.188E-01    0.01       1.0  T
  30   -610.6626200 -0.891593E-02  0.143E-01    0.01       1.0  T
  31   -610.6666725 -0.405250E-02  0.120E-01    0.02       1.0  T
  32   -610.6538644  0.128081E-01  0.172E-01    0.03       1.0  T
  33   -610.6560482 -0.218377E-02  0.158E-01    0.02       1.0  T
  34   -610.6615235 -0.547527E-02  0.122E-01    0.01       1.0  T
  35   -610.6655480 -0.402457E-02  0.105E-01    0.01       1.0  T
  36   -610.6663046 -0.756577E-03  0.971E-02    0.01       1.0  T
  37   -610.6672894 -0.984758E-03  0.890E-02    0.02       1.0  T
  38   -610.6684744 -0.118505E-02  0.783E-02    0.02       1.0  T
  39   -610.6703324 -0.185797E-02  0.579E-02    0.02       1.0  T
  40   -610.6707486 -0.416262E-03  0.473E-02    0.02       1.0  T
  41   -610.6710922 -0.343544E-03  0.439E-02    0.02       1.0  T
  42   -610.6712551 -0.162867E-03  0.405E-02    0.02       1.0  T
  43   -610.6714441 -0.189060E-03  0.399E-02    0.03       1.0  T
  44   -610.6716643 -0.220205E-03  0.356E-02    0.03       1.0  T
  45   -610.6718526 -0.188287E-03  0.296E-02    0.03       1.0  T
  46   -610.6720971 -0.244450E-03  0.231E-02    0.03       1.0  T
  47   -610.6722341 -0.137015E-03  0.174E-02    0.03       1.0  T
  48   -610.6723201 -0.860092E-04  0.126E-02    0.03       1.0  T
  49   -610.6723771 -0.569913E-04  0.799E-03    0.03       1.0  T
  50   -610.6724093 -0.322507E-04  0.486E-03    0.03       1.1  T
  51   -610.6724197 -0.103272E-04  0.270E-03    0.03       1.9  T
  52   -610.6724224 -0.270676E-05  0.189E-03    0.03       2.7  T
  53   -610.6724248 -0.243183E-05  0.852E-04    0.03       6.1  T
  54   -610.6724252 -0.358757E-06  0.419E-04    0.03      12.4  T
  55   -610.6724252 -0.320778E-07  0.323E-04    0.03      16.1  T
     SCC iter.                  ...        0 min, 33.240 sec
     gradient                   ...        0 min,  2.668 sec
 * total energy  :  -602.0073050 Eh     change       -0.1167116E+01 Eh
   gradient norm :     3.0973064 Eh/α   predicted    -0.1822870E+01 (  56.19%)
   displ. norm   :     0.6462102 α      lambda       -0.7192656E+00
   maximum displ.:     0.2029289 α      in ANC's #648, #691, #745, ...

........................................................................
.............................. CYCLE    4 ..............................
........................................................................

 iter      E             dE          RMSdq      gap      omega  full diag
   1   -610.2189004 -0.610219E+03  0.815E-01    0.05       0.0  T
   2   -606.1627799  0.405612E+01  0.220E+00    0.49       1.0  T
   3   -610.0085116 -0.384573E+01  0.100E+00    0.38       1.0  T
   4   -610.6291238 -0.620612E+00  0.777E-01    0.04       1.0  T
   5   -610.1755306  0.453593E+00  0.851E-01    0.41       1.0  T
   6   -610.5959962 -0.420466E+00  0.546E-01    0.06       1.0  T
   7   -609.7254945  0.870502E+00  0.101E+00    0.11       1.0  T
   8   -607.8613866  0.186411E+01  0.176E+00    0.12       1.0  T
   9   -610.2186202 -0.235723E+01  0.843E-01    0.11       1.0  T
  10   -610.4592839 -0.240664E+00  0.591E-01    0.17       1.0  T
  11   -610.7113274 -0.252044E+00  0.531E-01    0.10       1.0  T
  12   -610.7553919 -0.440644E-01  0.385E-01    0.02       1.0  T
  13   -610.6326753  0.122717E+00  0.466E-01    0.06       1.0  T
  14   -610.8284677 -0.195792E+00  0.300E-01    0.04       1.0  T
  15   -610.8540214 -0.255538E-01  0.290E-01    0.01       1.0  T
  16   -610.8534434  0.578000E-03  0.291E-01    0.01       1.0  T
  17   -610.7661709  0.872725E-01  0.439E-01    0.08       1.0  T
  18   -610.7751999 -0.902894E-02  0.424E-01    0.08       1.0  T
  19   -610.8888331 -0.113633E+00  0.203E-01    0.02       1.0  T
  20   -610.9055169 -0.166838E-01  0.136E-01    0.01       1.0  T
  21   -610.9227298 -0.172130E-01  0.627E-02    0.01       1.0  T
  22   -610.9144929  0.823695E-02  0.112E-01    0.01       1.0  T
  23   -610.9190546 -0.456175E-02  0.820E-02    0.01       1.0  T
  24   -610.9212287 -0.217404E-02  0.711E-02    0.01       1.0  T
  25   -610.9216248 -0.396105E-03  0.598E-02    0.01       1.0  T
  26   -610.9230030 -0.137818E-02  0.514E-02    0.01       1.0  T
  27   -610.9242415 -0.123847E-02  0.344E-02    0.01       1.0  T
  28   -610.9245980 -0.356541E-03  0.279E-02    0.02       1.0  T
  29   -610.9245461  0.519205E-04  0.283E-02    0.02       1.0  T
  30   -610.9246364 -0.903517E-04  0.263E-02    0.02       1.0  T
  31   -610.9248023 -0.165885E-03  0.218E-02    0.02       1.0  T
  32   -610.9250362 -0.233901E-03  0.128E-02    0.02       1.0  T
  33   -610.9251368 -0.100588E-03  0.630E-03    0.02       1.0  T
  34   -610.9251591 -0.222807E-04  0.345E-03    0.02       1.5  T
  35   -610.9251669 -0.784101E-05  0.142E-03    0.02       3.7  T
  36   -610.9251681 -0.119046E-05  0.516E-04    0.02      10.1  T
  37   -610.9251683 -0.142284E-06  0.327E-04    0.02      15.9  T
  38   -610.9251683 -0.231016E-07  0.258E-04    0.02      20.1  T
     SCC iter.                  ...        0 min, 23.744 sec
     gradient                   ...        0 min,  2.999 sec
 * total energy  :  -602.5936512 Eh     change       -0.5863462E+00 Eh
   gradient norm :     2.7986451 Eh/α   predicted    -0.5098111E+00 ( -13.05%)
   displ. norm   :     0.7066427 α      lambda       -0.5676069E+00
   maximum displ.:     0.2508428 α      in ANC's #691, #745, #740, ...

........................................................................
.............................. CYCLE    5 ..............................
........................................................................

 iter      E             dE          RMSdq      gap      omega  full diag
   1   -610.8651679 -0.610865E+03  0.627E-01    0.05       0.0  T
   2   -606.9148243  0.395034E+01  0.204E+00    0.45       1.0  T
   3   -610.7755897 -0.386077E+01  0.871E-01    0.33       1.0  T
   4   -610.5882288  0.187361E+00  0.755E-01    0.46       1.0  T
   5   -610.9157553 -0.327526E+00  0.632E-01    0.25       1.0  T
   6   -611.0013781 -0.856227E-01  0.572E-01    0.06       1.0  T
   7   -610.8979275  0.103451E+00  0.612E-01    0.29       1.0  T
   8   -610.9941130 -0.961856E-01  0.439E-01    0.04       1.0  T
   9   -610.9125691  0.815439E-01  0.583E-01    0.21       1.0  T
  10   -610.7441419  0.168427E+00  0.722E-01    0.20       1.0  T
  11   -610.9948957 -0.250754E+00  0.476E-01    0.04       1.0  T
  12   -610.9827651  0.121305E-01  0.512E-01    0.12       1.0  T
  13   -611.0687452 -0.859801E-01  0.346E-01    0.05       1.0  T
  14   -611.0837111 -0.149658E-01  0.342E-01    0.08       1.0  T
  15   -611.1719507 -0.882396E-01  0.145E-01    0.01       1.0  T
  16   -611.1607726  0.111781E-01  0.176E-01    0.04       1.0  T
  17   -611.1824104 -0.216379E-01  0.959E-02    0.02       1.0  T
  18   -611.1833405 -0.930034E-03  0.873E-02    0.03       1.0  T
  19   -611.1857551 -0.241461E-02  0.729E-02    0.00       1.0  T
  20   -611.1900709 -0.431577E-02  0.227E-02    0.01       1.0  T
  21   -611.1902439 -0.173053E-03  0.237E-02    0.01       1.0  T
  22   -611.1893713  0.872590E-03  0.374E-02    0.01       1.0  T
  23   -611.1902459 -0.874623E-03  0.221E-02    0.01       1.0  T
  24   -611.1906257 -0.379774E-03  0.116E-02    0.01       1.0  T
  25   -611.1907135 -0.877520E-04  0.795E-03    0.01       1.0  T
  26   -611.1907289 -0.154169E-04  0.616E-03    0.01       1.0  T
  27   -611.1907555 -0.266297E-04  0.383E-03    0.01       1.4  T
  28   -611.1907593 -0.377314E-05  0.319E-03    0.01       1.6  T
  29   -611.1907623 -0.305430E-05  0.294E-03    0.01       1.8  T
  30   -611.1907677 -0.540386E-05  0.170E-03    0.01       3.1  T
  31   -611.1907700 -0.221394E-05  0.517E-04    0.01      10.1  T
  32   -611.1907702 -0.211351E-06  0.116E-04    0.01      45.0  T
  33   -611.1907702 -0.757450E-08  0.699E-05    0.01      74.4  T
     SCC iter.                  ...        0 min, 19.938 sec
     gradient                   ...        0 min,  3.013 sec
 * total energy  :  -603.0684894 Eh     change       -0.4748382E+00 Eh
   gradient norm :     2.3628413 Eh/α   predicted    -0.4255195E+00 ( -10.39%)
   displ. norm   :     0.7507434 α      lambda       -0.4559290E+00
   maximum displ.:     0.2308860 α      in ANC's #691, #900, #814, ...

........................................................................
.............................. CYCLE    6 ..............................
........................................................................

 iter      E             dE          RMSdq      gap      omega  full diag
   1   -611.3326700 -0.611333E+03  0.371E-01    0.02       0.0  T
   2   -610.8693384  0.463332E+00  0.902E-01    0.36       1.0  T
   3   -611.0619304 -0.192592E+00  0.531E-01    0.05       1.0  T
   4   -611.1446516 -0.827212E-01  0.550E-01    0.17       1.0  T
   5   -611.1685444 -0.238928E-01  0.509E-01    0.04       1.0  T
   6   -611.1022692  0.662752E-01  0.576E-01    0.18       1.0  T
   7   -611.1163597 -0.140905E-01  0.594E-01    0.13       1.0  T
   8   -611.3049476 -0.188588E+00  0.294E-01    0.01       1.0  T
   9   -611.2687521  0.361955E-01  0.354E-01    0.02       1.0  T
  10   -611.2770953 -0.834321E-02  0.338E-01    0.03       1.0  T
  11   -611.2800908 -0.299542E-02  0.346E-01    0.03       1.0  T
  12   -611.3346500 -0.545593E-01  0.215E-01    0.04       1.0  T
  13   -611.3690812 -0.344311E-01  0.114E-01    0.01       1.0  T
  14   -611.3474019  0.216793E-01  0.191E-01    0.01       1.0  T
  15   -611.3724116 -0.250097E-01  0.963E-02    0.01       1.0  T
  16   -611.3793666 -0.695507E-02  0.397E-02    0.02       1.0  T
  17   -611.3792769  0.897764E-04  0.398E-02    0.01       1.0  T
  18   -611.3807899 -0.151308E-02  0.141E-02    0.01       1.0  T
  19   -611.3806237  0.166187E-03  0.164E-02    0.01       1.0  T
  20   -611.3809186 -0.294835E-03  0.696E-03    0.01       1.0  T
  21   -611.3809781 -0.595245E-04  0.171E-03    0.01       3.0  T
  22   -611.3809796 -0.149844E-05  0.100E-03    0.01       5.2  T
  23   -611.3809807 -0.107729E-05  0.326E-04    0.01      15.9  T
  24   -611.3809807 -0.678798E-07  0.167E-04    0.01      31.1  T
  25   -611.3809808 -0.249624E-07  0.700E-05    0.01      74.3  T
     SCC iter.                  ...        0 min, 15.061 sec
     gradient                   ...        0 min,  2.992 sec
 * total energy  :  -603.4485679 Eh     change       -0.3800785E+00 Eh
   gradient norm :     1.7209120 Eh/α   predicted    -0.3564490E+00 (  -6.22%)
   displ. norm   :     0.7260909 α      lambda       -0.3560295E+00
   maximum displ.:     0.2399863 α      in ANC's #900, #691, #814, ...

........................................................................
.............................. CYCLE    7 ..............................
........................................................................

 iter      E             dE          RMSdq      gap      omega  full diag
   1   -611.4547430 -0.611455E+03  0.298E-01    0.00       0.0  T
   2   -610.9038535  0.550889E+00  0.714E-01    0.12       1.0  T
   3   -610.0303029  0.873551E+00  0.114E+00    0.18       1.0  T
   4   -611.3759433 -0.134564E+01  0.368E-01    0.03       1.0  T
   5   -611.2119673  0.163976E+00  0.588E-01    0.33       1.0  T
   6   -611.1747201  0.372472E-01  0.628E-01    0.20       1.0  T
   7   -611.4299512 -0.255231E+00  0.220E-01    0.00       1.0  T
   8   -611.0786717  0.351279E+00  0.675E-01    0.16       1.0  T
   9   -611.3734152 -0.294744E+00  0.359E-01    0.06       1.0  T
  10   -611.4188365 -0.454213E-01  0.271E-01    0.07       1.0  T
  11   -611.4629272 -0.440907E-01  0.146E-01    0.02       1.0  T
  12   -611.4775512 -0.146241E-01  0.698E-02    0.01       1.0  T
  13   -611.4779672 -0.415980E-03  0.617E-02    0.01       1.0  T
  14   -611.4780983 -0.131081E-03  0.555E-02    0.01       1.0  T
  15   -611.4794958 -0.139752E-02  0.301E-02    0.01       1.0  T
  16   -611.4801232 -0.627366E-03  0.105E-02    0.01       1.0  T
  17   -611.4800966  0.265489E-04  0.115E-02    0.01       1.0  T
  18   -611.4801394 -0.427234E-04  0.922E-03    0.01       1.0  T
  19   -611.4802119 -0.725038E-04  0.229E-03    0.01       2.3  T
  20   -611.4802159 -0.403338E-05  0.127E-03    0.01       4.1  T
  21   -611.4802162 -0.312706E-06  0.105E-03    0.01       4.9  T
  22   -611.4802172 -0.978731E-06  0.174E-04    0.01      29.8  T
  23   -611.4802172 -0.155115E-07  0.432E-05    0.01     120.3  T
     SCC iter.                  ...        0 min, 14.098 sec
     gradient                   ...        0 min,  2.888 sec
 * total energy  :  -603.7402503 Eh     change       -0.2916824E+00 Eh
   gradient norm :     0.9422075 Eh/α   predicted    -0.2718657E+00 (  -6.79%)
   displ. norm   :     0.6817516 α      lambda       -0.2374915E+00
   maximum displ.:     0.2374414 α      in ANC's #900, #691, #549, ...

........................................................................
.............................. CYCLE    8 ..............................
........................................................................

 iter      E             dE          RMSdq      gap      omega  full diag
   1   -611.5090391 -0.611509E+03  0.251E-01    0.02       0.0  T
   2   -610.8253973  0.683642E+00  0.760E-01    0.36       1.0  T
   3   -611.2482691 -0.422872E+00  0.579E-01    0.15       1.0  T
   4   -611.3633183 -0.115049E+00  0.458E-01    0.07       1.0  T
   5   -611.2024143  0.160904E+00  0.653E-01    0.24       1.0  T
   6   -611.1092763  0.931379E-01  0.691E-01    0.21       1.0  T
   7   -611.4459898 -0.336713E+00  0.306E-01    0.01       1.0  T
   8   -611.3701429  0.758469E-01  0.421E-01    0.10       1.0  T
   9   -611.4812339 -0.111091E+00  0.228E-01    0.03       1.0  T
  10   -611.5176594 -0.364255E-01  0.967E-02    0.00       1.0  T
  11   -611.5242224 -0.656298E-02  0.638E-02    0.02       1.0  T
  12   -611.5258010 -0.157858E-02  0.471E-02    0.00       1.0  T
  13   -611.5272662 -0.146519E-02  0.293E-02    0.02       1.0  T
  14   -611.5280761 -0.809890E-03  0.959E-03    0.01       1.0  T
  15   -611.5281502 -0.741176E-04  0.461E-03    0.01       1.1  T
  16   -611.5281549 -0.470583E-05  0.399E-03    0.01       1.3  T
  17   -611.5281686 -0.137105E-04  0.915E-04    0.01       5.7  T
  18   -611.5281693 -0.679328E-06  0.466E-04    0.01      11.2  T
  19   -611.5281694 -0.141527E-06  0.166E-04    0.01      31.4  T
     SCC iter.                  ...        0 min, 11.643 sec
     gradient                   ...        0 min,  3.136 sec
 * total energy  :  -603.9202725 Eh     change       -0.1800222E+00 Eh
   gradient norm :     0.4288013 Eh/α   predicted    -0.1739370E+00 (  -3.38%)
   displ. norm   :     0.6543091 α      lambda       -0.1296006E+00
   maximum displ.:     0.1768910 α      in ANC's #549, #338, #900, ...

........................................................................
.............................. CYCLE    9 ..............................
........................................................................

 iter      E             dE          RMSdq      gap      omega  full diag
   1   -611.5533285 -0.611553E+03  0.201E-01    0.03       0.0  T
   2   -610.8840124  0.669316E+00  0.745E-01    0.24       1.0  T
   3   -610.9018440 -0.178316E-01  0.839E-01    0.03       1.0  T
   4   -611.3941117 -0.492268E+00  0.474E-01    0.08       1.0  T
   5   -611.1001130  0.293999E+00  0.603E-01    0.09       1.0  T
   6   -611.2508148 -0.150702E+00  0.651E-01    0.24       1.0  T
   7   -611.3450126 -0.941978E-01  0.420E-01    0.03       1.0  T
   8   -611.3568669 -0.118542E-01  0.526E-01    0.09       1.0  T
   9   -611.4785453 -0.121678E+00  0.341E-01    0.04       1.0  T
  10   -611.5244752 -0.459299E-01  0.254E-01    0.04       1.0  T
  11   -611.5066364  0.178389E-01  0.285E-01    0.04       1.0  T
  12   -611.5569388 -0.503024E-01  0.165E-01    0.01       1.0  T
  13   -611.5515884  0.535035E-02  0.172E-01    0.02       1.0  T
  14   -611.5611858 -0.959734E-02  0.140E-01    0.02       1.0  T
  15   -611.5184478  0.427380E-01  0.264E-01    0.02       1.0  T
  16   -611.5324330 -0.139852E-01  0.219E-01    0.03       1.0  T
  17   -611.5469908 -0.145578E-01  0.174E-01    0.02       1.0  T
  18   -611.5471002 -0.109343E-03  0.141E-01    0.02       1.0  T
  19   -611.5597782 -0.126780E-01  0.903E-02    0.03       1.0  T
  20   -611.5635208 -0.374256E-02  0.808E-02    0.03       1.0  T
  21   -611.5684779 -0.495709E-02  0.241E-02    0.01       1.0  T
  22   -611.5668276  0.165026E-02  0.469E-02    0.02       1.0  T
  23   -611.5685466 -0.171903E-02  0.171E-02    0.01       1.0  T
  24   -611.5686884 -0.141748E-03  0.115E-02    0.01       1.0  T
  25   -611.5687813 -0.929639E-04  0.502E-03    0.01       1.0  T
  26   -611.5688002 -0.188654E-04  0.202E-03    0.01       2.6  T
  27   -611.5688016 -0.141366E-05  0.160E-03    0.01       3.3  T
  28   -611.5688024 -0.822911E-06  0.116E-03    0.01       4.5  T
  29   -611.5688034 -0.994236E-06  0.530E-04    0.01       9.8  T
  30   -611.5688036 -0.205973E-06  0.212E-04    0.01      24.5  T
     SCC iter.                  ...        0 min, 18.251 sec
     gradient                   ...        0 min,  3.051 sec
 * total energy  :  -604.0259647 Eh     change       -0.1056922E+00 Eh
   gradient norm :     0.2651157 Eh/α   predicted    -0.9254263E-01 ( -12.44%)
   displ. norm   :     0.7050060 α      lambda       -0.1019619E+00
   maximum displ.:     0.2019684 α      in ANC's #549, #338, #398, ...

........................................................................
.............................. CYCLE   10 ..............................
........................................................................

 iter      E             dE          RMSdq      gap      omega  full diag
   1   -611.3150358 -0.611315E+03  0.531E-01    0.00       0.0  T
   2   -610.3203018  0.994734E+00  0.115E+00    0.46       1.0  T
   3   -610.8465674 -0.526266E+00  0.783E-01    0.98       1.0  T
   4   -610.9240772 -0.775097E-01  0.714E-01    0.20       1.0  T
   5   -610.4047812  0.519296E+00  0.113E+00    0.18       1.0  T
   6   -610.3851929  0.195884E-01  0.104E+00    0.04       1.0  T
   7   -610.4679764 -0.827835E-01  0.105E+00    0.05       1.0  T
   8   -610.3975199  0.704565E-01  0.108E+00    0.05       1.0  T
   9   -610.6019132 -0.204393E+00  0.101E+00    0.01       1.0  T
  10   -610.4808996  0.121014E+00  0.105E+00    0.13       1.0  T
  11   -609.3785843  0.110232E+01  0.145E+00    0.10       1.0  T
  12   -609.6166934 -0.238109E+00  0.136E+00    0.06       1.0  T
  13   -611.2081760 -0.159148E+01  0.816E-01    0.16       1.0  T
  14   -611.4296190 -0.221443E+00  0.568E-01    0.03       1.0  T
  15   -611.4789352 -0.493162E-01  0.490E-01    0.01       1.0  T
  16   -611.4379788  0.409565E-01  0.551E-01    0.05       1.0  T
  17   -611.5400502 -0.102071E+00  0.395E-01    0.05       1.0  T
  18   -611.4703197  0.697305E-01  0.468E-01    0.04       1.0  T
  19   -611.5714928 -0.101173E+00  0.276E-01    0.01       1.0  T
  20   -611.3382193  0.233273E+00  0.467E-01    0.05       1.0  T
  21   -611.5895066 -0.251287E+00  0.210E-01    0.01       1.0  T
  22   -611.4132610  0.176246E+00  0.413E-01    0.04       1.0  T
  23   -611.4848560 -0.715949E-01  0.339E-01    0.02       1.0  T
  24   -611.6047020 -0.119846E+00  0.137E-01    0.01       1.0  T
  25   -611.6152561 -0.105542E-01  0.911E-02    0.00       1.0  T
  26   -611.6176403 -0.238418E-02  0.753E-02    0.02       1.0  T
  27   -611.6174550  0.185357E-03  0.854E-02    0.02       1.0  T
  28   -611.6180476 -0.592687E-03  0.764E-02    0.02       1.0  T
  29   -611.6187583 -0.710686E-03  0.615E-02    0.02       1.0  T
  30   -611.6187824 -0.240672E-04  0.598E-02    0.02       1.0  T
  31   -611.6187356  0.468285E-04  0.531E-02    0.02       1.0  T
  32   -611.6184724  0.263199E-03  0.481E-02    0.01       1.0  T
  33   -611.6184897 -0.173100E-04  0.466E-02    0.01       1.0  T
  34   -611.6190607 -0.571029E-03  0.398E-02    0.01       1.0  T
  35   -611.6197143 -0.653549E-03  0.310E-02    0.01       1.0  T
  36   -611.6199772 -0.262950E-03  0.252E-02    0.01       1.0  T
  37   -611.6204082 -0.430949E-03  0.158E-02    0.01       1.0  T
  38   -611.6206029 -0.194700E-03  0.753E-03    0.01       1.0  T
  39   -611.6206289 -0.260133E-04  0.546E-03    0.01       1.0  T
  40   -611.6206540 -0.251469E-04  0.277E-03    0.01       1.9  T
  41   -611.6206521  0.191687E-05  0.300E-03    0.01       1.7  T
  42   -611.6206553 -0.324684E-05  0.240E-03    0.01       2.2  T
  43   -611.6206566 -0.121905E-05  0.191E-03    0.01       2.7  T
  44   -611.6206558  0.780262E-06  0.186E-03    0.01       2.8  T
  45   -611.6206571 -0.136923E-05  0.129E-03    0.01       4.0  T
  46   -611.6206574 -0.209135E-06  0.982E-04    0.01       5.3  T
  47   -611.6206576 -0.238800E-06  0.583E-04    0.01       8.9  T
     SCC iter.                  ...        0 min, 29.050 sec
     gradient                   ...        0 min,  3.057 sec
 * total energy  :  -604.1125569 Eh     change       -0.8659218E-01 Eh
   gradient norm :     0.2178052 Eh/α   predicted    -0.7632019E-01 ( -11.86%)
   displ. norm   :     0.7504021 α      lambda       -0.9143015E-01
   maximum displ.:     0.2155831 α      in ANC's #338, #549, #398, ...

........................................................................
.............................. CYCLE   11 ..............................
........................................................................

 iter      E             dE          RMSdq      gap      omega  full diag
   1   -611.1684085 -0.611168E+03  0.838E-01    0.02       0.0  T
   2   -607.6883134  0.348010E+01  0.162E+00    0.01       1.0  T
   3   -610.9048811 -0.321657E+01  0.846E-01    0.31       1.0  T
   4   -610.6339969  0.270884E+00  0.992E-01    0.06       1.0  T
   5   -611.3318873 -0.697890E+00  0.756E-01    0.16       1.0  T
   6   -611.3366706 -0.478328E-02  0.646E-01    0.03       1.0  T
   7   -610.9369698  0.399701E+00  0.765E-01    0.21       1.0  T
   8   -611.4359415 -0.498972E+00  0.514E-01    0.01       1.0  T
   9   -611.0451945  0.390747E+00  0.699E-01    0.12       1.0  T
  10   -611.5921431 -0.546949E+00  0.468E-01    0.01       1.0  T
  11   -611.6175837 -0.254406E-01  0.404E-01    0.03       1.0  T
  12   -611.6245373 -0.695357E-02  0.382E-01    0.02       1.0  T
  13   -611.6223593  0.217802E-02  0.386E-01    0.01       1.0  T
  14   -611.6198070  0.255226E-02  0.350E-01    0.04       1.0  T
  15   -611.5544343  0.653727E-01  0.374E-01    0.03       1.0  T
  16   -611.6342951 -0.798608E-01  0.280E-01    0.02       1.0  T
  17   -611.6270400  0.725508E-02  0.306E-01    0.04       1.0  T
  18   -611.6551324 -0.280924E-01  0.228E-01    0.00       1.0  T
  19   -611.6541810  0.951357E-03  0.230E-01    0.02       1.0  T
  20   -611.6629003 -0.871930E-02  0.193E-01    0.02       1.0  T
  21   -611.6737134 -0.108131E-01  0.123E-01    0.02       1.0  T
  22   -611.6724645  0.124888E-02  0.136E-01    0.02       1.0  T
  23   -611.6736303 -0.116582E-02  0.114E-01    0.00       1.0  T
  24   -611.6740344 -0.404032E-03  0.110E-01    0.00       1.0  T
  25   -611.6651042  0.893017E-02  0.103E-01    0.01       1.0  T
  26   -611.6649288  0.175425E-03  0.103E-01    0.01       1.0  T
  27   -611.6752794 -0.103506E-01  0.668E-02    0.01       1.0  T
  28   -611.6772174 -0.193800E-02  0.562E-02    0.01       1.0  T
  29   -611.6787658 -0.154847E-02  0.281E-02    0.01       1.0  T
  30   -611.6794474 -0.681532E-03  0.160E-02    0.01       1.0  T
  31   -611.6794965 -0.491376E-04  0.110E-02    0.01       1.0  T
  32   -611.6795997 -0.103227E-03  0.671E-03    0.01       1.0  T
  33   -611.6796342 -0.344569E-04  0.429E-03    0.01       1.2  T
  34   -611.6796422 -0.795145E-05  0.285E-03    0.01       1.8  T
  35   -611.6796476 -0.542479E-05  0.137E-03    0.01       3.8  T
  36   -611.6796486 -0.104524E-05  0.417E-04    0.01      12.5  T
  37   -611.6796484  0.242035E-06  0.671E-04    0.01       7.7  T
  38   -611.6796488 -0.446955E-06  0.124E-04    0.01      42.0  T
     SCC iter.                  ...        0 min, 23.044 sec
     gradient                   ...        0 min,  2.904 sec
 * total energy  :  -604.1925592 Eh     change       -0.8000230E-01 Eh
   gradient norm :     0.2021634 Eh/α   predicted    -0.7145745E-01 ( -10.68%)
   displ. norm   :     0.7684174 α      lambda       -0.8435746E-01
   maximum displ.:     0.2302109 α      in ANC's #338, #549, #648, ...

........................................................................
.............................. CYCLE   12 ..............................
........................................................................

 iter      E             dE          RMSdq      gap      omega  full diag
   1   -611.6753014 -0.611675E+03  0.583E-01    0.01       0.0  T
   2   -610.7504991  0.924802E+00  0.972E-01    1.21       1.0  T
   3   -610.2138327  0.536666E+00  0.118E+00    0.24       1.0  T
   4   -610.4255364 -0.211704E+00  0.119E+00    0.16       1.0  T
   5   -611.6583371 -0.123280E+01  0.471E-01    0.04       1.0  T
   6   -611.4086446  0.249693E+00  0.719E-01    0.26       1.0  T
   7   -611.7231768 -0.314532E+00  0.243E-01    0.01       1.0  T
   8   -611.6750431  0.481336E-01  0.326E-01    0.04       1.0  T
   9   -611.7049889 -0.299457E-01  0.264E-01    0.00       1.0  T
  10   -611.6728420  0.321469E-01  0.316E-01    0.06       1.0  T
  11   -611.6152736  0.575683E-01  0.314E-01    0.01       1.0  T
  12   -611.6642822 -0.490086E-01  0.299E-01    0.04       1.0  T
  13   -611.7233185 -0.590363E-01  0.185E-01    0.02       1.0  T
  14   -611.7315825 -0.826409E-02  0.149E-01    0.02       1.0  T
  15   -611.7333239 -0.174138E-02  0.120E-01    0.03       1.0  T
  16   -611.7330953  0.228646E-03  0.109E-01    0.02       1.0  T
  17   -611.7370721 -0.397683E-02  0.939E-02    0.02       1.0  T
  18   -611.7383563 -0.128420E-02  0.831E-02    0.02       1.0  T
  19   -611.7381765  0.179846E-03  0.825E-02    0.02       1.0  T
  20   -611.7415671 -0.339064E-02  0.572E-02    0.02       1.0  T
  21   -611.7439793 -0.241221E-02  0.204E-02    0.01       1.0  T
  22   -611.7442682 -0.288869E-03  0.934E-03    0.01       1.0  T
  23   -611.7440622  0.205983E-03  0.173E-02    0.01       1.0  T
  24   -611.7443155 -0.253346E-03  0.627E-03    0.01       1.0  T
  25   -611.7443337 -0.181112E-04  0.226E-03    0.01       2.3  T
  26   -611.7443355 -0.182418E-05  0.129E-03    0.01       4.0  T
  27   -611.7443360 -0.472445E-06  0.487E-04    0.01      10.7  T
  28   -611.7443362 -0.209041E-06  0.109E-04    0.01      47.8  T
     SCC iter.                  ...        0 min, 17.224 sec
     gradient                   ...        0 min,  3.063 sec
 * total energy  :  -604.2643731 Eh     change       -0.7181398E-01 Eh
   gradient norm :     0.1902953 Eh/α   predicted    -0.6708378E-01 (  -6.59%)
   displ. norm   :     0.7380208 α      lambda       -0.6847920E-01
   maximum displ.:     0.2294444 α      in ANC's #338, #648, #549, ...

........................................................................
.............................. CYCLE   13 ..............................
........................................................................

 iter      E             dE          RMSdq      gap      omega  full diag
   1   -611.7547377 -0.611755E+03  0.515E-01    0.00       0.0  T
   2   -611.3960441  0.358694E+00  0.705E-01    0.02       1.0  T
   3   -610.6735390  0.722505E+00  0.110E+00    0.09       1.0  T
   4   -611.3489605 -0.675422E+00  0.731E-01    0.09       1.0  T
   5   -611.7588330 -0.409872E+00  0.299E-01    0.01       1.0  T
   6   -611.6665806  0.922524E-01  0.383E-01    0.03       1.0  T
   7   -611.7070058 -0.404253E-01  0.359E-01    0.05       1.0  T
   8   -611.5769914  0.130014E+00  0.533E-01    0.18       1.0  T
   9   -611.7791874 -0.202196E+00  0.166E-01    0.01       1.0  T
  10   -611.7815903 -0.240285E-02  0.150E-01    0.02       1.0  T
  11   -611.7750924  0.649789E-02  0.177E-01    0.01       1.0  T
  12   -611.7865783 -0.114859E-01  0.111E-01    0.03       1.0  T
  13   -611.7894261 -0.284786E-02  0.976E-02    0.02       1.0  T
  14   -611.7947524 -0.532626E-02  0.525E-02    0.02       1.0  T
  15   -611.7924362  0.231616E-02  0.709E-02    0.01       1.0  T
  16   -611.7960557 -0.361951E-02  0.253E-02    0.01       1.0  T
  17   -611.7965280 -0.472244E-03  0.803E-03    0.01       1.0  T
  18   -611.7965610 -0.330448E-04  0.378E-03    0.01       1.4  T
  19   -611.7965734 -0.123940E-04  0.674E-04    0.01       7.7  T
  20   -611.7965725  0.971535E-06  0.123E-03    0.01       4.2  T
  21   -611.7965737 -0.123567E-05  0.256E-04    0.01      20.3  T
  22   -611.7965737 -0.417577E-07  0.120E-04    0.01      43.2  T
  23   -611.7965737 -0.918897E-08  0.264E-05    0.01     196.7  T
     SCC iter.                  ...        0 min, 13.818 sec
     gradient                   ...        0 min,  2.837 sec
 * total energy  :  -604.3225205 Eh     change       -0.5814740E-01 Eh
   gradient norm :     0.2010458 Eh/α   predicted    -0.5288905E-01 (  -9.04%)
   displ. norm   :     0.7289702 α      lambda       -0.6069169E-01
   maximum displ.:     0.2444745 α      in ANC's #338, #648, #194, ...

........................................................................
.............................. CYCLE   14 ..............................
........................................................................

 iter      E             dE          RMSdq      gap      omega  full diag
   1   -611.8020484 -0.611802E+03  0.514E-01    0.00       0.0  T
   2   -611.4466203  0.355428E+00  0.807E-01    0.25       1.0  T
   3   -611.6313545 -0.184734E+00  0.526E-01    0.05       1.0  T
   4   -611.5566344  0.747201E-01  0.605E-01    0.16       1.0  T
   5   -611.5650792 -0.844474E-02  0.609E-01    0.18       1.0  T
   6   -611.7623055 -0.197226E+00  0.317E-01    0.05       1.0  T
   7   -611.7839326 -0.216271E-01  0.313E-01    0.02       1.0  T
   8   -611.5009383  0.282994E+00  0.620E-01    0.11       1.0  T
   9   -611.5796484 -0.787102E-01  0.590E-01    0.13       1.0  T
  10   -611.7615132 -0.181865E+00  0.311E-01    0.05       1.0  T
  11   -611.8367825 -0.752693E-01  0.122E-01    0.01       1.0  T
  12   -611.8072903  0.294922E-01  0.209E-01    0.03       1.0  T
  13   -611.8099732 -0.268289E-02  0.200E-01    0.05       1.0  T
  14   -611.8395169 -0.295437E-01  0.896E-02    0.01       1.0  T
  15   -611.8423276 -0.281068E-02  0.741E-02    0.01       1.0  T
  16   -611.8436867 -0.135908E-02  0.591E-02    0.01       1.0  T
  17   -611.8448078 -0.112116E-02  0.445E-02    0.01       1.0  T
  18   -611.8455645 -0.756635E-03  0.290E-02    0.01       1.0  T
  19   -611.8460175 -0.453022E-03  0.163E-02    0.01       1.0  T
  20   -611.8461213 -0.103775E-03  0.119E-02    0.01       1.0  T
  21   -611.8461021  0.191517E-04  0.136E-02    0.01       1.0  T
  22   -611.8462173 -0.115197E-03  0.532E-03    0.01       1.0  T
  23   -611.8462397 -0.223655E-04  0.197E-03    0.01       2.6  T
  24   -611.8462414 -0.170702E-05  0.144E-03    0.01       3.6  T
  25   -611.8462430 -0.160563E-05  0.612E-04    0.01       8.5  T
  26   -611.8462433 -0.306933E-06  0.165E-04    0.01      31.5  T
  27   -611.8462433  0.968453E-08  0.173E-04    0.01      30.0  T
     SCC iter.                  ...        0 min, 16.373 sec
     gradient                   ...        0 min,  2.974 sec
 * total energy  :  -604.3746818 Eh     change       -0.5216126E-01 Eh
   gradient norm :     0.1914224 Eh/α   predicted    -0.4647153E-01 ( -10.91%)
   displ. norm   :     0.8035109 α      lambda       -0.6511894E-01
   maximum displ.:     0.2554985 α      in ANC's #338, #347, #691, ...

........................................................................
.............................. CYCLE   15 ..............................
........................................................................

 iter      E             dE          RMSdq      gap      omega  full diag
   1   -611.8188380 -0.611819E+03  0.493E-01    0.01       0.0  T
   2   -611.4125800  0.406258E+00  0.852E-01    0.27       1.0  T
   3   -611.7016816 -0.289102E+00  0.458E-01    0.02       1.0  T
   4   -611.5868350  0.114847E+00  0.612E-01    0.23       1.0  T
   5   -611.5913677 -0.453270E-02  0.584E-01    0.19       1.0  T
   6   -611.5979556 -0.658788E-02  0.551E-01    0.06       1.0  T
   7   -611.6647362 -0.667806E-01  0.490E-01    0.16       1.0  T
   8   -611.7030039 -0.382677E-01  0.451E-01    0.05       1.0  T
   9   -611.6853347  0.176693E-01  0.440E-01    0.09       1.0  T
  10   -611.6694042  0.159305E-01  0.493E-01    0.09       1.0  T
  11   -611.8130963 -0.143692E+00  0.228E-01    0.02       1.0  T
  12   -611.8167130 -0.361662E-02  0.217E-01    0.01       1.0  T
  13   -611.8445342 -0.278213E-01  0.135E-01    0.01       1.0  T
  14   -611.8592781 -0.147438E-01  0.419E-02    0.01       1.0  T
  15   -611.8607332 -0.145515E-02  0.153E-02    0.01       1.0  T
  16   -611.8609550 -0.221768E-03  0.349E-03    0.01       1.5  T
  17   -611.8609146  0.403187E-04  0.775E-03    0.01       1.0  T
  18   -611.8609612 -0.465063E-04  0.220E-03    0.01       2.4  T
  19   -611.8609654 -0.420199E-05  0.506E-04    0.01      10.3  T
  20   -611.8609656 -0.232003E-06  0.623E-05    0.01      83.4  T
  21   -611.8609656  0.124394E-07  0.131E-04    0.01      39.6  T
     SCC iter.                  ...        0 min, 12.647 sec
     gradient                   ...        0 min,  2.876 sec
 * total energy  :  -604.4248535 Eh     change       -0.5017171E-01 Eh
   gradient norm :     0.1754947 Eh/α   predicted    -0.5358110E-01 (   6.80%)
   displ. norm   :     0.7480503 α      lambda       -0.6433524E-01
   maximum displ.:     0.2529274 α      in ANC's #338, #691, #194, ...

........................................................................
.............................. CYCLE   16 ..............................
........................................................................

 iter      E             dE          RMSdq      gap      omega  full diag
   1   -611.8847929 -0.611885E+03  0.367E-01    0.01       0.0  T
   2   -611.4539076  0.430885E+00  0.842E-01    0.38       1.0  T
   3   -611.7891220 -0.335214E+00  0.387E-01    0.03       1.0  T
   4   -611.6282117  0.160910E+00  0.613E-01    0.18       1.0  T
   5   -611.8569513 -0.228740E+00  0.324E-01    0.00       1.0  T
   6   -611.5190592  0.337892E+00  0.663E-01    0.12       1.0  T
   7   -611.8216412 -0.302582E+00  0.338E-01    0.06       1.0  T
   8   -611.8027343  0.189069E-01  0.350E-01    0.01       1.0  T
   9   -611.8552997 -0.525655E-01  0.241E-01    0.04       1.0  T
  10   -611.8370667  0.182330E-01  0.282E-01    0.01       1.0  T
  11   -611.8543226 -0.172559E-01  0.249E-01    0.06       1.0  T
  12   -611.8884126 -0.340900E-01  0.168E-01    0.01       1.0  T
  13   -611.9021210 -0.137084E-01  0.858E-02    0.01       1.0  T
  14   -611.9082970 -0.617608E-02  0.140E-02    0.00       1.0  T
  15   -611.9083236 -0.265427E-04  0.114E-02    0.01       1.0  T
  16   -611.9084370 -0.113376E-03  0.250E-03    0.01       2.1  T
  17   -611.9084414 -0.448941E-05  0.923E-04    0.01       5.6  T
  18   -611.9084421 -0.648613E-06  0.450E-04    0.01      11.6  T
  19   -611.9084422 -0.930297E-07  0.347E-04    0.01      15.0  T
     SCC iter.                  ...        0 min, 11.523 sec
     gradient                   ...        0 min,  2.934 sec
 * total energy  :  -604.4725490 Eh     change       -0.4769554E-01 Eh
   gradient norm :     0.1913811 Eh/α   predicted    -0.5016789E-01 (   5.18%)
   displ. norm   :     0.6464901 α      lambda       -0.4314167E-01
   maximum displ.:     0.2159919 α      in ANC's #338, #691, #194, ...

........................................................................
.............................. CYCLE   17 ..............................
........................................................................

 iter      E             dE          RMSdq      gap      omega  full diag
   1   -611.9105236 -0.611911E+03  0.190E-01    0.01       0.0  T
   2   -611.7417244  0.168799E+00  0.493E-01    0.04       1.0  T
   3   -611.6912844  0.504400E-01  0.524E-01    0.13       1.0  T
   4   -611.5806257  0.110659E+00  0.671E-01    0.27       1.0  T
   5   -611.8835195 -0.302894E+00  0.227E-01    0.02       1.0  T
   6   -611.4950780  0.388441E+00  0.680E-01    0.15       1.0  T
   7   -611.8174371 -0.322359E+00  0.329E-01    0.04       1.0  T
   8   -611.9080663 -0.906293E-01  0.922E-02    0.02       1.0  T
   9   -611.8993081  0.875824E-02  0.135E-01    0.03       1.0  T
  10   -611.9061844 -0.687637E-02  0.103E-01    0.02       1.0  T
  11   -611.9146094 -0.842497E-02  0.375E-02    0.00       1.0  T
  12   -611.9153887 -0.779315E-03  0.230E-02    0.01       1.0  T
  13   -611.9157119 -0.323197E-03  0.133E-02    0.00       1.0  T
  14   -611.9158718 -0.159866E-03  0.180E-03    0.01       2.9  T
  15   -611.9158743 -0.248439E-05  0.399E-04    0.01      13.0  T
[...]
    95   6 C       98   6 C                                       1.3953877
    97   6 C       99   6 C                                       1.3893925
    98   6 C      100   6 C                                       1.3756755
    99   6 C      101   6 C                                       1.3770695
   100   6 C      101   6 C                                       1.3984963
    88   7 N      102   1 H                                       1.0176054
    89   6 C      103   1 H                                       1.0951262
    92   6 C      104   1 H                                       1.0925880
    92   6 C      105   1 H                                       1.0940725
    94   6 C      106   1 H                                       1.0766163
    96   7 N      107   1 H                                       1.0118737
    98   6 C      108   1 H                                       1.0836685
    99   6 C      109   1 H                                       1.0803225
   100   6 C      110   1 H                                       1.0832719
   101   6 C      111   1 H                                       1.0808185
   112   7 N      113   6 C                                       1.4563864
   114   6 C      115   8 O                                       1.2147747
   113   6 C      116   6 C                                       1.5368201
   117   6 C      118   8 O                                       1.2218606
   117   6 C      119   7 N                                       1.3331485
   112   7 N      120   1 H                                       1.0121025
   113   6 C      121   1 H                                       1.0962013
   116   6 C      122   1 H                                       1.0928784
   116   6 C      123   1 H                                       1.0899524
   119   7 N      124   1 H                                       1.0058342
   119   7 N      125   1 H                                       1.0228399
   114   6 C      126   7 N                                       1.3305872
   126   7 N      127   6 C                                       1.4522029
   128   6 C      129   8 O                                       1.2138178
   127   6 C      130   6 C                                       1.5280328
   130   6 C      131   8 O                                       1.3912145
   126   7 N      132   1 H                                       1.0080106
   127   6 C      133   1 H                                       1.0987404
   130   6 C      134   1 H                                       1.1026775
   130   6 C      135   1 H                                       1.0953295
   131   8 O      136   1 H                                       0.9727818
   137   7 N      138   6 C                                       1.4602487
   139   6 C      140   8 O                                       1.2116266
   138   6 C      141   6 C                                       1.5231934
   141   6 C      142   6 C                                       1.4795744
   142   6 C      143   7 N                                       1.3700753
   142   6 C      144   6 C                                       1.3607078
   143   7 N      145   6 C                                       1.3543330
   144   6 C      146   7 N                                       1.3582676
   145   6 C      146   7 N                                       1.3031896
   137   7 N      147   1 H                                       1.0136838
   138   6 C      148   1 H                                       1.0972942
   141   6 C      149   1 H                                       1.0908201
   141   6 C      150   1 H                                       1.0939993
   143   7 N      151   1 H                                       1.0087029
   144   6 C      152   1 H                                       1.0742161
   145   6 C      153   1 H                                       1.0743318
   154   7 N      155   6 C                                       1.4534653
   156   6 C      157   8 O                                       1.2171754
   155   6 C      158   6 C                                       1.5365671
   159   6 C      160   6 C                                       1.3989316
   159   6 C      161   6 C                                       1.4001696
   160   6 C      162   6 C                                       1.3694158
   161   6 C      163   6 C                                       1.3671719
   154   7 N      166   1 H                                       1.0100069
   155   6 C      167   1 H                                       1.0974848
   158   6 C      168   1 H                                       1.0920565
   158   6 C      169   1 H                                       1.0917668
   160   6 C      170   1 H                                       1.0852007
   161   6 C      171   1 H                                       1.0843130
   162   6 C      172   1 H                                       1.0824563
   163   6 C      173   1 H                                       1.0809759
   174   7 N      175   6 C                                       1.4486281
   176   6 C      177   8 O                                       1.2244466
   179   6 C      180   6 C                                       1.4013486
   179   6 C      181   6 C                                       1.3986269
   180   6 C      182   6 C                                       1.3652502
   181   6 C      183   6 C                                       1.3668551
   184   6 C      185   8 O                                       1.2450302
   174   7 N      186   1 H                                       1.0097452
   175   6 C      187   1 H                                       1.0961459
   178   6 C      188   1 H                                       1.0929424
   178   6 C      189   1 H                                       1.0907660
   180   6 C      190   1 H                                       1.0852973
   181   6 C      191   1 H                                       1.0835155
   182   6 C      192   1 H                                       1.0828575
   183   6 C      193   1 H                                       1.0812978
   194   6 C      195  16 S                                       1.8450658 (max)
   196   6 C      197   6 C                                       1.5220281
   197   6 C      198   6 C                                       1.5247070
   199   6 C      200   8 O                                       1.2569035
   199   6 C      201   8 O                                       1.2170338
   198   6 C      202   7 N                                       1.4749500
   195  16 S      203   6 C                                       1.8067965
   194   6 C      204   6 C                                       1.5258432
   204   6 C      205   8 O                                       1.4330542
   205   8 O      206   6 C                                       1.4044865
   208   6 C      209   8 O                                       1.4054445
   207   6 C      210   8 O                                       1.3968344
   206   6 C      211   7 N                                       1.4345628
   211   7 N      212   6 C                                       1.3638953
   212   6 C      213   7 N                                       1.2996959
   213   7 N      214   6 C                                       1.3696563
   214   6 C      215   6 C                                       1.3987464
   215   6 C      216   7 N                                       1.3603523
   215   6 C      217   7 N                                       1.3394022
   217   7 N      218   6 C                                       1.3345364
   218   6 C      219   7 N                                       1.3146594
   211   7 N      220   6 C                                       1.3621055
   214   6 C      220   6 C                                       1.4081358
   219   7 N      220   6 C                                       1.3357864
   194   6 C      221   1 H                                       1.0860770
   194   6 C      222   1 H                                       1.0847190
   196   6 C      223   1 H                                       1.0892418
   196   6 C      224   1 H                                       1.0854330
   197   6 C      225   1 H                                       1.0902836
   197   6 C      226   1 H                                       1.0937377
   198   6 C      227   1 H                                       1.0927341
   202   7 N      228   1 H                                       1.0313154
   202   7 N      230   1 H                                       1.0157501
   203   6 C      231   1 H                                       1.0838313
   203   6 C      232   1 H                                       1.0846184
   203   6 C      233   1 H                                       1.0870251
   204   6 C      234   1 H                                       1.1017896
   206   6 C      235   1 H                                       1.1039932
   207   6 C      236   1 H                                       1.0961471
   208   6 C      237   1 H                                       1.0985221
   209   8 O      238   1 H                                       0.9819750
   210   8 O      239   1 H                                       0.9852351
   212   6 C      240   1 H                                       1.0715315
   216   7 N      241   1 H                                       1.0123284
   216   7 N      242   1 H                                       1.0070724
   218   6 C      243   1 H                                       1.0831275
   244   6 C      246   8 O                                       1.2378539
   247   6 C      248   1 H                                       1.0878799
   247   6 C      249   1 H                                       1.0876501
   247   6 C      250   1 H                                       1.0860618
     1   7 N      251   6 C                                       1.3410911
   251   6 C      252   8 O                                       1.2238511
   253   6 C      254   1 H                                       1.0887020
   253   6 C      255   1 H                                       1.0869583
   253   6 C      256   1 H                                       1.0883595
    21   7 N      257   6 C                                       1.3532073
   257   6 C      258   8 O                                       1.2110574
   259   6 C      260   1 H                                       1.0889146
   259   6 C      261   1 H                                       1.0868778
   259   6 C      262   1 H                                       1.0884188
    45   7 N      263   6 C                                       1.3425770
   263   6 C      264   8 O                                       1.2159351
   265   6 C      266   1 H                                       1.0887757
   265   6 C      267   1 H                                       1.0881983
   265   6 C      268   1 H                                       1.0869292
    55   7 N      269   6 C                                       1.3801246
   269   6 C      270   8 O                                       1.2187773
    62   7 N      275   6 C                                       1.3374752
   275   6 C      276   8 O                                       1.2245164
   277   6 C      278   1 H                                       1.0877131
   277   6 C      279   1 H                                       1.0876061
   277   6 C      280   1 H                                       1.0883919
    74   7 N      281   6 C                                       1.3683444
   281   6 C      282   8 O                                       1.2108908
   283   6 C      284   1 H                                       1.0890029
   283   6 C      285   1 H                                       1.0885119
   283   6 C      286   1 H                                       1.0865667
   112   7 N      287   6 C                                       1.3899610
   287   6 C      288   8 O                                       1.2096358
   289   6 C      290   1 H                                       1.0880790
   289   6 C      291   1 H                                       1.0898124
   289   6 C      292   1 H                                       1.0884648
   137   7 N      293   6 C                                       1.3386555
   293   6 C      294   8 O                                       1.2245315
   295   6 C      296   1 H                                       1.0880852
   295   6 C      297   1 H                                       1.0877370
   295   6 C      298   1 H                                       1.0887308
   154   7 N      299   6 C                                       1.3409656
   299   6 C      300   8 O                                       1.2219190
   301   6 C      302   1 H                                       1.0869932
   301   6 C      303   1 H                                       1.0881222
   301   6 C      304   1 H                                       1.0885104
   174   7 N      305   6 C                                       1.3463483
   305   6 C      306   8 O                                       1.2180116
   307   6 C      308   1 H                                       1.0880601
   307   6 C      309   1 H                                       1.0884946
   307   6 C      310   1 H                                       1.0871639
     3   6 C      311   7 N                                       1.3436971
   311   7 N      312   1 H                                       1.0176759
   311   7 N      313   6 C                                       1.4401693
   313   6 C      314   1 H                                       1.0898528
   313   6 C      315   1 H                                       1.0912361
   313   6 C      316   1 H                                       1.0921942
    23   6 C      317   7 N                                       1.3573638
   317   7 N      318   1 H                                       1.0084668
   317   7 N      319   6 C                                       1.4410980
   319   6 C      320   1 H                                       1.0906964
   319   6 C      321   1 H                                       1.0886676
   319   6 C      322   1 H                                       1.0924972
    47   6 C      323   7 N                                       1.3358325
   274   1 H      323   7 N                                       0.9363083 (min)
   323   7 N      324   1 H                                       1.0121435
   271   6 C      325   6 C                                       1.5229145
   272   1 H      325   6 C                                       1.0826806
   273   1 H      325   6 C                                       1.0885093
   325   6 C      326   1 H                                       1.0874004
   271   6 C      327   1 H                                       1.0693732
   271   6 C      328   1 H                                       1.0799807
    57   6 C      329   7 N                                       1.3493842
   329   7 N      330   1 H                                       1.0080432
   329   7 N      331   6 C                                       1.4404064
   331   6 C      332   1 H                                       1.0915571
   331   6 C      333   1 H                                       1.0916424
   331   6 C      334   1 H                                       1.0891744
    64   6 C      335   7 N                                       1.3294985
   335   7 N      336   1 H                                       1.0248426
   335   7 N      337   6 C                                       1.4397839
   337   6 C      338   1 H                                       1.0901882
   337   6 C      339   1 H                                       1.0921923
   337   6 C      340   1 H                                       1.0905090
    90   6 C      341   7 N                                       1.3433084
   341   7 N      342   1 H                                       1.0132082
   341   7 N      343   6 C                                       1.4396914
   343   6 C      344   1 H                                       1.0920409
   343   6 C      345   1 H                                       1.0906183
   343   6 C      346   1 H                                       1.0896750
   128   6 C      347   7 N                                       1.3460059
   347   7 N      348   1 H                                       1.0078174
   347   7 N      349   6 C                                       1.4402371
   349   6 C      350   1 H                                       1.0920772
   349   6 C      351   1 H                                       1.0884135
   349   6 C      352   1 H                                       1.0903322
   139   6 C      353   7 N                                       1.3526132
   353   7 N      354   1 H                                       1.0080560
   353   7 N      355   6 C                                       1.4383829
   355   6 C      356   1 H                                       1.0922079
   355   6 C      357   1 H                                       1.0891265
   355   6 C      358   1 H                                       1.0920551
   156   6 C      359   7 N                                       1.3451872
   359   7 N      360   1 H                                       1.0154040
   359   7 N      361   6 C                                       1.4407894
   361   6 C      362   1 H                                       1.0918275
   361   6 C      363   1 H                                       1.0899776
   361   6 C      364   1 H                                       1.0911080
   176   6 C      365   7 N                                       1.3359717
   365   7 N      366   1 H                                       1.0170988
   365   7 N      367   6 C                                       1.4408915
   367   6 C      368   1 H                                       1.0914961
   367   6 C      369   1 H                                       1.0897117
   367   6 C      370   1 H                                       1.0913885

 * 7 distinct bonds (by element types)

   Z      Z             #   av. dist./Å        max./Å        min./Å
   1 H    6 C         138     1.0887921     1.1039932     1.0693732
   6 C    6 C          47     1.4307204     1.5406847     1.3607078
   1 H    7 N          34     1.0104299     1.0313154     0.9363083
   6 C    7 N          64     1.3837627     1.4749500     1.2996959
   1 H    8 O           3     0.9799973     0.9852351     0.9727818
   6 C    8 O          35     1.2498870     1.4330542     1.2083434
   6 C   16 S           2     1.8259311     1.8450658     1.8067965


optimized geometry written to: xtbopt.mol


           -------------------------------------------------
          | TOTAL ENERGY             -604.983663694716 Eh   |
          | GRADIENT NORM               0.002585056873 Eh/α |
          | HOMO-LUMO GAP               0.009939352017 eV   |
           -------------------------------------------------

------------------------------------------------------------------------
 * finished run on 2024/03/04 at 04:39:17.408     
------------------------------------------------------------------------
 total:
 * wall-time:     0 d,  0 h, 25 min, 19.843 sec
 *  cpu-time:     0 d,  0 h, 25 min, 15.675 sec
 * ratio c/w:     0.997 speedup
 SCF:
 * wall-time:     0 d,  0 h,  0 min, 52.516 sec
 *  cpu-time:     0 d,  0 h,  0 min, 52.388 sec
 * ratio c/w:     0.998 speedup
 ANC optimizer:
 * wall-time:     0 d,  0 h, 24 min, 26.424 sec
 *  cpu-time:     0 d,  0 h, 24 min, 22.838 sec
 * ratio c/w:     0.998 speedup

