370
 energy: -554.873539434854 gnorm: 281.220919774831 xtb: 6.6.1 (8d0f1dd)
N           41.63200000000000      105.83299999999998      117.86499999999998
C           42.84399999999999      105.26999999999998      117.27499999999999
C           43.94199999999999      106.30299999999998      117.09800000000000
O           44.20900000000000      106.83300000000000      116.03600000000000
C           42.52300000000000      104.62600000000000      115.92399999999999
C           41.76600000000000      103.32100000000000      116.03200000000000
C           40.40900000000000      103.30600000000000      116.31600000000000
C           42.41200000000000      102.10699999999999      115.84699999999999
C           39.71200000000000      102.11700000000000      116.41600000000000
C           41.72600000000000      100.91199999999999      115.94400000000000
C           40.37500000000000      100.92100000000001      116.22900000000000
O           39.68700000000000       99.73300000000000      116.32500000000000
H           40.79500000000000      105.68099999999998      117.31800000000000
H           43.21800000000000      104.48399999999999      117.94400000000000
H           41.93000000000000      105.34399999999999      115.35699999999999
H           43.47199999999999      104.45499999999998      115.41600000000000
H           39.89100000000000      104.25400000000000      116.46299999999998
H           43.47800000000000      102.10699999999999      115.62300000000000
H           38.64599999999999      102.12000000000000      116.64000000000000
H           42.25100000000000       99.96800000000000      115.79599999999999
N           47.03900000000000       96.25099999999999      114.13400000000000
C           45.73900000000000       95.75400000000000      113.70099999999998
C           45.89600000000000       94.46700000000000      112.90900000000001
O           45.19499999999999       93.49500000000000      113.10699999999999
C           44.99600000000000       96.81099999999999      112.85499999999999
C           43.51700000000000       96.61000000000000      112.91799999999999
C           42.65900000000000       96.21999999999998      111.92400000000001
C           42.71600000000000       96.81299999999999      114.08299999999998
N           41.38400000000000       96.16900000000000      112.38799999999999
C           41.38200000000000       96.52400000000000      113.70699999999998
C           42.98499999999999       97.21400000000000      115.39299999999999
C           40.33000000000000       96.61300000000000      114.61199999999998
C           41.93900000000000       97.30799999999999      116.28000000000000
C           40.62800000000000       97.00600000000000      115.89699999999999
H           47.02699999999999       97.20300000000000      114.47000000000000
H           45.12400000000000       95.52199999999999      114.57899999999998
H           45.23300000000000       97.79600000000001      113.26799999999999
H           45.34300000000000       96.78099999999999      111.81999999999998
H           42.88200000000000       95.97600000000000      110.89800000000000
H           40.55700000000000       95.95300000000000      111.83400000000000
H           43.99700000000000       97.45300000000000      115.70599999999999
H           39.32800000000000       96.34399999999998      114.30900000000000
H           42.12600000000000       97.61700000000000      117.30099999999999
H           39.84100000000000       97.08600000000000      116.63400000000000
N           34.07200000000000      102.05800000000001      106.84199999999998
C           34.90400000000000      101.60599999999998      107.94900000000000
C           36.18399999999999      100.99400000000000      107.40499999999999
O           36.71800000000000      100.03599999999999      107.93199999999999
C           34.15200000000000      100.62900000000000      108.84499999999998
H           34.02300000000000      101.45699999999999      106.03500000000000
H           35.15400000000000      102.50200000000000      108.52999999999999
H           34.77200000000000      100.38199999999999      109.70099999999999
H           33.24000000000000      101.09099999999999      109.21299999999999
H           33.90900000000000       99.71400000000000      108.30799999999999
N           39.35199999999999      101.15500000000000      107.67900000000000
C           40.36999999999999      100.61499999999999      108.55600000000000
C           41.67500000000000      100.50200000000000      107.79400000000000
O           42.27600000000000      101.46700000000000      107.36600000000000
H           38.98400000000000      102.05600000000000      107.98200000000000
H           40.49800000000000      101.29599999999999      109.39800000000000
H           40.06500000000000       99.64000000000000      108.94600000000000
N           37.49200000000000      106.63000000000000      105.96800000000000
C           37.67199999999999      106.30199999999999      107.37199999999999
C           38.02400000000000      107.60200000000000      108.07700000000000
O           38.59899999999999      108.48300000000000      107.45000000000000
C           38.77099999999999      105.25500000000000      107.57500000000000
C           38.69299999999999      104.56999999999999      108.93299999999999
O           38.90500000000000      105.22900000000000      109.92300000000000
O           38.42100000000000      103.39299999999999      108.96699999999998
H           37.92700000000000      107.50600000000000      105.70799999999998
H           36.74500000000000      105.86199999999999      107.75500000000000
H           38.69900000000000      104.49600000000000      106.79600000000001
H           39.74800000000000      105.73000000000000      107.48000000000000
N           34.49600000000000      111.50599999999999      107.85800000000000
C           33.80800000000000      111.10899999999999      109.07599999999999
C           32.31900000000000      110.98900000000000      108.83900000000000
O           31.74500000000000      111.83799999999999      108.17200000000000
C           34.09200000000000      112.09000000000000      110.19900000000000
C           33.68300000000000      111.56100000000001      111.54600000000001
O           32.52500000000000      111.17900000000000      111.75000000000000
N           34.61100000000000      111.53100000000001      112.46800000000000
H           34.03500000000000      112.23500000000000      107.33300000000000
H           34.23900000000000      110.15400000000000      109.39100000000001
H           35.15900000000000      112.31999999999998      110.22099999999999
H           33.56100000000000      113.02300000000000      110.01100000000000
H           34.39500000000000      111.18899999999999      113.38300000000000
H           35.53400000000000      111.84999999999998      112.25799999999998
N           31.71700000000000      109.93300000000001      109.38200000000001
C           30.28700000000000      109.69299999999998      109.22399999999999
C           29.48999999999999      110.95399999999999      109.51700000000000
O           28.51200000000000      111.24900000000000      108.85100000000000
C           29.82600000000000      108.56599999999999      110.14900000000000
C           30.57800000000000      107.28400000000001      109.95200000000000
C           31.17800000000000      106.86000000000000      108.80400000000000
C           30.81500000000000      106.24799999999999      110.93500000000000
N           31.76800000000000      105.63600000000000      109.00399999999999
C           31.55700000000000      105.24800000000000      110.30300000000000
C           30.46300000000000      106.09199999999998      112.28200000000000
C           31.95700000000000      104.09900000000000      110.96700000000000
C           30.86400000000000      104.94100000000000      112.94899999999998
C           31.59300000000000      103.97100000000000      112.30800000000001
H           32.25300000000000      109.25199999999998      109.91700000000000
H           30.07400000000000      109.38800000000001      108.19499999999999
H           29.94500000000000      108.87599999999999      111.18800000000000
H           28.76700000000000      108.37099999999998      109.98500000000000
H           31.18700000000000      107.41100000000000      107.86600000000000
H           32.27400000000000      105.10700000000000      108.30799999999999
H           29.88700000000000      106.86100000000000      112.79599999999999
H           32.53600000000000      103.31699999999999      110.47599999999998
H           30.58500000000000      104.82700000000000      113.99700000000000
H           31.89200000000000      103.07999999999998      112.86100000000000
N           32.08600000000000       95.96100000000000      113.90900000000001
C           31.70600000000000       96.64200000000000      115.13899999999998
C           32.17700000000000       98.09000000000000      115.07599999999998
O           32.23400000000000       98.79000000000001      116.06800000000000
C           32.27300000000000       95.93299999999999      116.35400000000000
C           31.48500000000000       96.20900000000000      117.60500000000000
O           30.27100000000000       96.43499999999999      117.55000000000000
N           32.15200000000000       96.19600000000000      118.73000000000000
H           31.47000000000000       95.19100000000000      113.68500000000000
H           30.60900000000000       96.65900000000001      115.15200000000000
H           32.28400000000000       94.85700000000000      116.17599999999999
H           33.30500000000000       96.24899999999998      116.51200000000000
H           31.67900000000000       96.37399999999998      119.59399999999998
H           33.13400000000000       96.00900000000000      118.72700000000000
N           32.36300000000000       98.58499999999999      113.85499999999999
C           32.77900000000000       99.95900000000000      113.63599999999998
C           31.85200000000000      100.95699999999999      114.30600000000000
O           32.28100000000000      101.98299999999999      114.79299999999999
C           32.80500000000000      100.19199999999998      112.12400000000000
O           33.13800000000000      101.49900000000000      111.76500000000000
H           32.36100000000000       97.98399999999999      113.03899999999999
H           33.76700000000000      100.12999999999998      114.07599999999998
H           33.50300000000000       99.46800000000000      111.68200000000000
H           31.81600000000000       99.98800000000000      111.70699999999999
H           33.91600000000000      101.76199999999999      112.28300000000000
N           31.51800000000000      102.24200000000000      117.99699999999999
C           32.53200000000000      103.13300000000000      118.55399999999999
C           31.95000000000000      104.49400000000000      118.89400000000001
O           32.50700000000000      105.22300000000000      119.71499999999999
C           33.69900000000000      103.30400000000000      117.57599999999999
C           34.64500000000000      102.14400000000001      117.55899999999998
N           35.77200000000000      102.09099999999999      118.35200000000000
C           34.63200000000000      100.99299999999999      116.84600000000000
C           36.41200000000000      100.95699999999999      118.12700000000000
N           35.74100000000000      100.27400000000000      117.21700000000000
H           31.58800000000000      101.95900000000000      117.03000000000000
H           32.92800000000000      102.70299999999999      119.47400000000000
H           33.31100000000000      103.44300000000000      116.56699999999999
H           34.26300000000000      104.20000000000000      117.83599999999998
H           36.03400000000000      102.75600000000000      119.05200000000001
H           33.94700000000000      100.59300000000000      116.09800000000000
H           37.33400000000000      100.72399999999999      118.66000000000000
N           38.16600000000000       88.90000000000001      113.85799999999999
C           39.48999999999999       88.92800000000000      114.45699999999998
C           39.82099999999999       87.54800000000000      115.00100000000000
O           39.00000000000000       86.65400000000000      115.10599999999999
C           39.56700000000000       89.97799999999998      115.56900000000000
C           38.99900000000000       91.32499999999999      115.18000000000001
C           37.67100000000000       91.63799999999999      115.43000000000001
C           39.79400000000000       92.28100000000001      114.56500000000000
C           37.14800000000000       92.86699999999999      115.07699999999998
C           39.28200000000000       93.51300000000001      114.20799999999998
C           37.95800000000000       93.80299999999998      114.46599999999999
O           37.44300000000000       95.02899999999998      114.11299999999999
H           37.39099999999999       88.98800000000000      114.49600000000000
H           40.18600000000000       89.18400000000000      113.65300000000001
H           39.01500000000000       89.58400000000000      116.42299999999999
H           40.61799999999999       90.08900000000000      115.83399999999999
H           37.03800000000000       90.89400000000001      115.91400000000000
H           40.84000000000000       92.04599999999999      114.36399999999999
H           36.10300000000000       93.09900000000000      115.28000000000000
H           39.92300000000000       94.25000000000000      113.72400000000000
N           33.06200000000000      100.91000000000000      123.18000000000001
C           31.86900000000000      100.75500000000000      122.37300000000000
C           30.60600000000000      101.07199999999999      123.14600000000000
O           29.72600000000000      100.26500000000000      123.38299999999998
C           31.79200000000000       99.33199999999999      121.81499999999998
C           33.09800000000000       98.82500000000000      121.24600000000000
C           34.09600000000000       98.33799999999999      122.07800000000000
C           33.32900000000000       98.83300000000000      119.87899999999999
C           35.29099999999999       97.87399999999998      121.56299999999999
C           34.52000000000000       98.37000000000000      119.35299999999999
C           35.49900000000000       97.89200000000000      120.19900000000000
O           36.68699999999999       97.42900000000000      119.68100000000000
H           33.63600000000000      100.07599999999998      123.20500000000000
H           31.92200000000000      101.47199999999999      121.54099999999998
H           31.47400000000000       98.68200000000000      122.63199999999999
H           31.03100000000000       99.33300000000000      121.03499999999998
H           33.92500000000000       98.32599999999999      123.15400000000000
H           32.55100000000000       99.21299999999999      119.21599999999998
H           36.06700000000000       97.49400000000000      122.22899999999998
H           34.68200000000000       98.38600000000000      118.27499999999999
C           36.77500000000000      100.65800000000000      114.09200000000000
S           37.94600000000000       99.23300000000000      114.14099999999999
C           37.23599999999999       98.31099999999999      112.64100000000001
C           38.33400000000000       98.30400000000000      111.58700000000000
C           37.96700000000000       97.65299999999999      110.25799999999998
C           38.02800000000000       96.05400000000000      110.21100000000000
O           37.05400000000000       95.59299999999999      109.56399999999998
O           38.99500000000000       95.49299999999998      110.69199999999998
N           36.58500000000000       97.93999999999998      109.83000000000000
C           37.08600000000000       98.15999999999998      115.31300000000000
C           36.51499999999999      101.43200000000000      112.80300000000000
O           35.49300000000000      102.37800000000000      113.14099999999999
C           35.49900000000000      103.41700000000000      112.19599999999998
C           36.95600000000000      103.55700000000000      111.68800000000000
C           37.65599999999999      102.26099999999998      112.15900000000001
O           38.22900000000000      101.55700000000000      111.08600000000000
O           37.56100000000000      104.73699999999998      112.12700000000000
N           34.97200000000000      104.62100000000000      112.77100000000000
C           34.64400000000000      104.86599999999999      114.07199999999999
N           34.11900000000000      106.03800000000000      114.27200000000001
C           34.08599999999999      106.62299999999999      113.03400000000001
C           33.55700000000000      107.82599999999999      112.55500000000001
N           33.00200000000000      108.73900000000000      113.39700000000001
N           33.66400000000000      108.10800000000000      111.25000000000000
C           34.27300000000000      107.21699999999998      110.46500000000000
N           34.77300000000000      106.04400000000000      110.78499999999998
C           34.63700000000000      105.74599999999998      112.08000000000000
H           35.82500000000000      100.26600000000001      114.45399999999998
H           37.16700000000000      101.34099999999999      114.84500000000000
H           36.98599999999999       97.29500000000000      112.94599999999998
H           36.31600000000000       98.80300000000000      112.32499999999999
H           39.19100000000000       97.76600000000001      111.99700000000000
H           38.65500000000000       99.33100000000000      111.39300000000000
H           38.65999999999999       98.00199999999998      109.48699999999999
H           36.52100000000000       98.57800000000000      109.02500000000001
H           36.32900000000000       96.87399999999998      109.63600000000000
H           36.03700000000000       98.29000000000001      110.61499999999999
H           37.60200000000000       97.20600000000000      115.29000000000001
H           36.05700000000000       98.01800000000000      114.99299999999999
H           37.14900000000000       98.58000000000000      116.31699999999999
H           36.13100000000000      100.77000000000000      112.01199999999999
H           34.84500000000000      103.16600000000000      111.34399999999999
H           36.91999999999999      103.54699999999998      110.59300000000000
H           38.42900000000000      102.50000000000000      112.90000000000001
H           38.35500000000000      102.15700000000000      110.32700000000000
H           38.18400000000000      104.97900000000000      111.41299999999998
H           34.79400000000000      104.12800000000000      114.83600000000000
H           32.42600000000000      109.46299999999999      112.98900000000000
H           32.70600000000000      108.35500000000000      114.28200000000000
H           34.37400000000000      107.50700000000001      109.42600000000000
C           35.37500000000000       94.65800000000000      118.06199999999998
O           34.85299999999999       95.26600000000001      119.02100000000000
O           34.95800000000000       93.62100000000000      117.53000000000000
C           36.63799999999999       95.30599999999998      117.43299999999999
H           36.68699999999999       96.35800000000000      117.69799999999999
H           37.51200000000000       94.78700000000001      117.82299999999999
H           36.60100000000000       95.17500000000000      116.35400000000000
C           41.40000000000000      105.69600000000000      119.16500000000001
O           42.18900000000000      105.13100000000000      119.91700000000000
C           40.20999999999999      106.23399999999999      119.66900000000000
H           39.53000000000000      105.42499999999998      119.93899999999998
H           40.42800000000000      106.83499999999998      120.55200000000001
H           39.74299999999999      106.86100000000000      118.90900000000001
C           47.85500000000000       95.46099999999998      114.82200000000000
O           47.56600000000000       94.30000000000000      115.11299999999999
C           49.08700000000000       95.99799999999999      115.21299999999999
H           49.12100000000000       96.07899999999999      116.29999999999998
H           49.89299999999999       95.34600000000000      114.87300000000000
H           49.21000000000000       96.98699999999999      114.77200000000001
C           33.66600000000000      103.31999999999999      106.73300000000000
O           33.93300000000000      104.18100000000000      107.57100000000000
C           32.88700000000000      103.64099999999999      105.61499999999998
H           33.50500000000000      104.14799999999998      104.87400000000000
H           32.47800000000000      102.72700000000000      105.18199999999999
H           32.07000000000000      104.29699999999998      105.91700000000000
C           38.99300000000000      100.47300000000000      106.59999999999999
O           39.48000000000000       99.37400000000000      106.31999999999999
C           38.02400000000000      101.05100000000000      105.77099999999999
H           38.38100000000000      102.01699999999998      105.41200000000001
H           37.83500000000000      100.39500000000000      104.92000000000000
H           37.10100000000000      101.19100000000000      106.33299999999998
C           36.95500000000000      105.77399999999999      105.10800000000000
O           36.59199999999999      104.64099999999999      105.42399999999999
C           36.82300000000000      106.22700000000000      103.79000000000001
H           37.75700000000000      106.69100000000000      103.47000000000000
H           36.59400000000000      105.38500000000001      103.13699999999999
H           36.01700000000000      106.95899999999999      103.73599999999999
C           35.60800000000000      110.89300000000000      107.46799999999999
O           36.13799999999999      109.99200000000000      108.12699999999998
C           36.16300000000000      111.30900000000000      106.25200000000000
H           37.20000000000000      111.60599999999998      106.40800000000000
H           36.12500000000000      110.48800000000000      105.53500000000000
H           35.59700000000000      112.15500000000000      105.86399999999999
C           33.35300000000000       95.90099999999998      113.51900000000001
O           34.26500000000000       96.40799999999999      114.13899999999998
C           33.60300000000000       95.42100000000001      112.22799999999998
H           34.61699999999999       95.02099999999999      112.17800000000000
H           32.89000000000000       94.63300000000000      111.98699999999999
H           33.49900000000000       96.23600000000000      111.50999999999999
C           30.50700000000000      101.80200000000001      118.73800000000000
O           30.36600000000000      102.11700000000000      119.91099999999999
C           29.58400000000000      100.94899999999998      118.11999999999999
H           29.79800000000000       99.91699999999999      118.40099999999998
H           28.57600000000000      101.21100000000000      118.44100000000000
H           29.66000000000000      101.05400000000000      117.03800000000000
C           37.93100000000000       89.49500000000000      112.69999999999999
O           38.79900000000000       90.10100000000000      112.07299999999998
C           36.61900000000000       89.41000000000000      112.21800000000000
H           36.63300000000000       89.04800000000000      111.18899999999999
H           36.04700000000000       88.72000000000000      112.83799999999999
H           36.15499999999999       90.39600000000000      112.25000000000000
C           34.09000000000000      101.64300000000000      122.77000000000000
O           34.09700000000000      102.26499999999999      121.70900000000000
C           35.18399999999999      101.69000000000000      123.64300000000000
H           34.82800000000000      101.69000000000000      124.67299999999999
H           35.81800000000000      100.81899999999999      123.47799999999998
H           35.75900000000000      102.59800000000000      123.45699999999999
N           43.71700000000000      107.48500000000000      117.64999999999999
H           42.87400000000000      107.62499999999999      118.18899999999999
C           44.61800000000000      108.54700000000000      117.50500000000000
H           44.74500000000000      108.77400000000000      116.44600000000000
H           45.58000000000000      108.27000000000000      117.93599999999999
H           44.23100000000000      109.42500000000000      118.02099999999999
N           46.86600000000000       94.46800000000000      111.99900000000000
H           47.43000000000000       95.30100000000000      111.91099999999999
C           47.12900000000000       93.37400000000000      111.16599999999998
H           46.58700000000000       93.49199999999999      110.22799999999998
H           46.81000000000000       92.45599999999999      111.65800000000000
H           48.19900000000000       93.32100000000000      110.96299999999999
N           36.72000000000000      101.59200000000000      106.34300000000000
H           36.26199999999999      102.41200000000001      105.97499999999999
C           37.88500000000000      101.12400000000000      105.72400000000000
H           37.73399999999999      101.08499999999999      104.64499999999998
H           38.11900000000000      100.12600000000000      106.09399999999999
H           38.71300000000000      101.79499999999999      105.95099999999999
N           42.28500000000000       99.32400000000000      107.81399999999998
H           41.87000000000000       98.54900000000001      108.31099999999999
C           43.50299999999999       99.13600000000000      107.14999999999999
H           43.33300000000000       99.12200000000000      106.07400000000000
H           43.94500000000000       98.18999999999998      107.46099999999998
H           44.18300000000000       99.95099999999999      107.39999999999999
N           37.65899999999999      107.73200000000000      109.34799999999998
H           37.23900000000000      106.95899999999999      109.84499999999998
C           38.02900000000000      108.87199999999999      110.07200000000000
H           38.65600000000000      109.51000000000001      109.45000000000000
H           38.58299999999999      108.57400000000000      110.96200000000000
H           37.13500000000000      109.42000000000000      110.37000000000000
N           29.75400000000000      111.57099999999998      110.65899999999999
H           30.50900000000000      111.25299999999999      111.25000000000000
C           28.99100000000000      112.67300000000000      111.06300000000000
H           29.08900000000000      113.47199999999999      110.32800000000000
H           29.34400000000000      113.02500000000001      112.03200000000000
H           27.94400000000000      112.38099999999999      111.14500000000000
N           30.57000000000000      100.91199999999999      113.96100000000000
H           30.24100000000000      100.16299999999998      113.36900000000000
C           29.66200000000000      101.88200000000001      114.40100000000000
H           29.74800000000000      102.77100000000000      113.77600000000000
H           29.88000000000000      102.14299999999999      115.43600000000001
H           28.64800000000000      101.48900000000000      114.33400000000000
N           30.81500000000000      104.82400000000000      118.27999999999999
H           30.36500000000000      104.15500000000000      117.67300000000000
C           30.23000000000000      106.08299999999998      118.45999999999998
H           30.20900000000000      106.61399999999999      117.50900000000000
H           30.81100000000000      106.65499999999999      119.18399999999998
H           29.21200000000000      105.96099999999998      118.83000000000000
N           40.58200000000000       86.78499999999998      114.22000000000000
H           40.90199999999999       87.16700000000000      113.34200000000000
C           40.94700000000000       85.48000000000000      114.57100000000000
H           41.30000000000000       84.95000000000000      113.68700000000000
H           40.08499999999999       84.95999999999999      114.98699999999998
H           41.74200000000000       85.51200000000000      115.31600000000000
N           29.57300000000000      101.49600000000000      122.43100000000000
H           29.68400000000000      101.65700000000000      121.43999999999998
C           28.32500000000000      101.72600000000000      123.02300000000000
H           28.43600000000000      102.44000000000000      123.83900000000000
H           27.92900000000000      100.78799999999998      123.41199999999999
H           27.63700000000000      102.12700000000000      122.27900000000000
370
 energy: -600.840188884047 gnorm: 4.896697207346 xtb: 6.6.1 (8d0f1dd)
N           41.63200000000000      105.83299999999998      117.86499999999998
C           42.84399999999999      105.26999999999998      117.27499999999999
C           43.94199999999999      106.30299999999998      117.09800000000000
O           44.20919888125975      106.83278706787087      116.03563484029570
C           42.52299634965412      104.62598971932366      115.92399164959345
C           41.76601001883358      103.32101706510801      116.03200053749930
C           40.40898873726217      103.30599897979897      116.31600299153487
C           42.41200827425826      102.10698455192878      115.84699843430818
C           39.71198386825391      102.11705315224006      116.41600193961831
C           41.72605806083288      100.91200923458135      115.94398748797482
C           40.37490179038867      100.92082352123191      116.22901204493600
O           39.68704502131009       99.73311887205334      116.32496417497845