      -----------------------------------------------------------      
     |                   =====================                   |     
     |                           x T B                           |     
     |                   =====================                   |     
     |                         S. Grimme                         |     
     |          Mulliken Center for Theoretical Chemistry        |     
     |                    University of Bonn                     |     
      -----------------------------------------------------------      

   * xtb version 6.6.1 (8d0f1dd) compiled by 'stahn@M-Bot' on 2023-08-01

   xtb is free software: you can redistribute it and/or modify it under
   the terms of the GNU Lesser General Public License as published by
   the Free Software Foundation, either version 3 of the License, or
   (at your option) any later version.
   
   xtb is distributed in the hope that it will be useful,
   but WITHOUT ANY WARRANTY; without even the implied warranty of
   MERCHANTABILITY or FITNESS FOR A PARTICULAR PURPOSE.  See the
   GNU Lesser General Public License for more details.
   
   Cite this work as:
   * C. Bannwarth, E. Caldeweyher, S. Ehlert, A. Hansen, P. Pracht,
     J. Seibert, S. Spicher, S. Grimme, WIREs Comput. Mol. Sci., 2020, 11,
     e01493. DOI: 10.1002/wcms.1493
   
   for GFN2-xTB:
   * C. Bannwarth, S. Ehlert and S. Grimme., J. Chem. Theory Comput., 2019,
     15, 1652-1671. DOI: 10.1021/acs.jctc.8b01176
   for GFN1-xTB:
   * S. Grimme, C. Bannwarth, P. Shushkov, J. Chem. Theory Comput., 2017,
     13, 1989-2009. DOI: 10.1021/acs.jctc.7b00118
   for GFN0-xTB:
   * P. Pracht, E. Caldeweyher, S. Ehlert, S. Grimme, ChemRxiv, 2019, preprint.
     DOI: 10.26434/chemrxiv.8326202.v1
   for GFN-FF:
   * S. Spicher and S. Grimme, Angew. Chem. Int. Ed., 2020, 59, 15665-15673.
     DOI: 10.1002/anie.202004239
   
   for ALPB and GBSA implicit solvation:
   * S. Ehlert, M. Stahn, S. Spicher, S. Grimme, J. Chem. Theory Comput.,
     2021, 17, 4250-4261. DOI: 10.1021/acs.jctc.1c00471
   
   for DFT-D4:
   * E. Caldeweyher, C. Bannwarth and S. Grimme, J. Chem. Phys., 2017,
     147, 034112. DOI: 10.1063/1.4993215
   * E. Caldeweyher, S. Ehlert, A. Hansen, H. Neugebauer, S. Spicher,
     C. Bannwarth and S. Grimme, J. Chem. Phys., 2019, 150, 154122.
     DOI: 10.1063/1.5090222
   * E. Caldeweyher, J.-M. Mewes, S. Ehlert and S. Grimme, Phys. Chem. Chem. Phys.
     2020, 22, 8499-8512. DOI: 10.1039/D0CP00502A
   
   for sTDA-xTB:
   * S. Grimme and C. Bannwarth, J. Chem. Phys., 2016, 145, 054103.
     DOI: 10.1063/1.4959605
   
   in the mass-spec context:
   * V. Asgeirsson, C. Bauer and S. Grimme, Chem. Sci., 2017, 8, 4879.
     DOI: 10.1039/c7sc00601b
   * J. Koopman and S. Grimme, ACS Omega 2019, 4, 12, 15120-15133.
     DOI: 10.1021/acsomega.9b02011
   
   for metadynamics refer to:
   * S. Grimme, J. Chem. Theory Comput., 2019, 155, 2847-2862
     DOI: 10.1021/acs.jctc.9b00143
   
   for SPH calculations refer to:
   * S. Spicher and S. Grimme, J. Chem. Theory Comput., 2021, 17, 1701-1714
     DOI: 10.1021/acs.jctc.0c01306
   
   with help from (in alphabetical order)
   P. Atkinson, C. Bannwarth, F. Bohle, G. Brandenburg, E. Caldeweyher
   M. Checinski, S. Dohm, S. Ehlert, S. Ehrlich, I. Gerasimov, C. Hölzer
   A. Katbashev, J. Koopman, C. Lavigne, S. Lehtola, F. März, M. Müller,
   F. Musil, H. Neugebauer, J. Pisarek, C. Plett, P. Pracht, F. Pultar,
   J. Seibert, P. Shushkov, S. Spicher, M. Stahn, M. Steiner, T. Strunk,
   J. Stückrath, T. Rose, and J. Unsleber
   
 * started run on 2024/06/15 at 02:31:38.167     

           -------------------------------------------------
          |                Calculation Setup                |
           -------------------------------------------------

          program call               : /home/jurichc/xtb-6.6.1/bin/xtb --chrg -1 --iterations 1000 --parallel 1 --norestart --sp /panfs/accrepfs.vampire/data/yang_lab/jurichc/enzy_rcd_benchmarking/enzy_rcd_no_qm/1nbh/QM_SPE/xtb_coords.mol
          hostname                   : cn1440
          coordinate file            : /panfs/accrepfs.vampire/data/yang_lab/jurichc/enzy_rcd_benchmarking/enzy_rcd_no_qm/1nbh/QM_SPE/xtb_coords.mol
          omp threads                :                     1

   ID    Z sym.   atoms
    1    7 N      1, 21, 31, 38, 45, 52, 59, 70, 98, 107, 109, 112, 113, 115,
                  177, 183, 189, 195, 201
    2    6 C      2, 3, 5-11, 22, 23, 25, 32, 33, 35, 36, 46, 47, 49, 50, 60,
                  61, 63, 71, 72, 74-80, 90, 92-95, 99, 100, 102-104, 108,
                  110, 111, 114, 116, 140, 143, 147, 149, 153, 155, 159, 161,
                  165, 167, 171, 173, 179, 185, 191, 197, 203
    3    8 O      4, 12, 24, 34, 37, 48, 51, 62, 64, 73, 81, 96, 97, 101,
                  105, 106, 141, 142, 148, 154, 160, 166, 172
    4    1 H      13-20, 26-30, 39-44, 53-58, 65-69, 82-89, 117-139, 144-146,
                  150-152, 156-158, 162-164, 168-170, 174-176, 178, 180-182,
                  184, 186-188, 190, 192-194, 196, 198-200, 202, 204-206
    5   16 S      91

molecular fragmentation (1/2 indicates fragments):
111111111111111111112222222222222222222222222222222222222222222222222222
222222222222222222222222222222222222222222222222222222222222222222222222
22111111222222222222222222222222111111222222222222222222222222
# atoms in fragment 1/2:    32   174
 fragment masses (1/2) :      235.26     1299.39
CMA distance (Bohr)    :  17.345
constraining FC (au)   :  0.0500
########################################################################
[WARNING] Please study the warnings concerning your input carefully
-1- prog_main: Charge in sdf/mol input was overwritten
########################################################################

           -------------------------------------------------
          |                 G F N 2 - x T B                 |
           -------------------------------------------------

        Reference                      10.1021/acs.jctc.8b01176
      * Hamiltonian:
        H0-scaling (s, p, d)           1.850000    2.230000    2.230000
        zeta-weighting                 0.500000
      * Dispersion:
        s8                             2.700000
        a1                             0.520000
        a2                             5.000000
        s9                             5.000000
      * Repulsion:
        kExp                           1.500000    1.000000
        rExp                           1.000000
      * Coulomb:
        alpha                          2.000000
        third order                    shell-resolved
        anisotropic                    true
        a3                             3.000000
        a5                             4.000000
        cn-shift                       1.200000
        cn-exp                         4.000000
        max-rad                        5.000000


          ...................................................
          :                      SETUP                      :
          :.................................................:
          :  # basis functions                 533          :
          :  # atomic orbitals                 532          :
          :  # shells                          314          :
          :  # electrons                       595          :
          :  max. iterations                  1000          :
          :  Hamiltonian                  GFN2-xTB          :
          :  restarted?                      false          :
          :  GBSA solvation                  false          :
          :  PC potential                    false          :
          :  electronic temp.          300.0000000     K    :
          :  accuracy                    1.0000000          :
          :  -> integral cutoff          0.2500000E+02      :
          :  -> integral neglect         0.1000000E-07      :
          :  -> SCF convergence          0.1000000E-05 Eh   :
          :  -> wf. convergence          0.1000000E-03 e    :
          :  Broyden damping             0.4000000          :
          ...................................................

 iter      E             dE          RMSdq      gap      omega  full diag
   1   -342.1831945 -0.342183E+03  0.460E+00    2.88       0.0  T
   2   -340.8162099  0.136698E+01  0.335E+00    0.09       1.0  T
   3   -334.7674209  0.604879E+01  0.348E+00    0.15       1.0  T
   4   -326.4655321  0.830189E+01  0.480E+00    0.01       1.0  T
   5   -343.6720281 -0.172065E+02  0.180E+00    2.00       1.0  T
   6   -343.8227001 -0.150672E+00  0.111E+00    1.60       1.0  T
   7   -343.8908345 -0.681344E-01  0.816E-01    0.39       1.0  T
   8   -342.6519765  0.123886E+01  0.175E+00    0.23       1.0  T
   9   -343.9842260 -0.133225E+01  0.529E-01    0.60       1.0  T
  10   -343.9524903  0.317357E-01  0.514E-01    0.74       1.0  T
  11   -344.0064836 -0.539933E-01  0.373E-01    0.77       1.0  T
  12   -343.8497674  0.156716E+00  0.624E-01    0.55       1.0  T
  13   -344.0165726 -0.166805E+00  0.282E-01    0.64       1.0  T
  14   -344.0331918 -0.166192E-01  0.149E-01    0.49       1.0  T
  15   -344.0313812  0.181060E-02  0.158E-01    0.38       1.0  T
  16   -344.0257305  0.565065E-02  0.162E-01    0.40       1.0  T
  17   -344.0352804 -0.954983E-02  0.115E-01    0.32       1.0  T
  18   -344.0376021 -0.232176E-02  0.743E-02    0.23       1.0  T
  19   -344.0371791  0.423051E-03  0.938E-02    0.11       1.0  T
  20   -344.0375780 -0.398879E-03  0.878E-02    0.11       1.0  T
  21   -344.0368731  0.704877E-03  0.985E-02    0.10       1.0  T
  22   -344.0334825  0.339057E-02  0.118E-01    0.09       1.0  T
  23   -344.0398886 -0.640614E-02  0.227E-02    0.13       1.0  T
  24   -344.0383901  0.149858E-02  0.624E-02    0.17       1.0  T
  25   -344.0391078 -0.717695E-03  0.487E-02    0.16       1.0  T
  26   -344.0398407 -0.732969E-03  0.217E-02    0.14       1.0  T
  27   -344.0394039  0.436861E-03  0.360E-02    0.12       1.0  T
  28   -344.0397433 -0.339483E-03  0.249E-02    0.13       1.0  T
  29   -344.0399873 -0.243909E-03  0.117E-02    0.13       1.0  T
  30   -344.0400353 -0.480166E-04  0.687E-03    0.13       1.0  T
  31   -344.0400426 -0.731976E-05  0.582E-03    0.13       1.2  T
  32   -344.0400493 -0.670309E-05  0.283E-03    0.14       2.5  T
  33   -344.0400513 -0.204977E-05  0.179E-03    0.14       3.9  T
  34   -344.0400511  0.213474E-06  0.187E-03    0.14       3.7  T
  35   -344.0400519 -0.778361E-06  0.106E-03    0.14       6.6  T
  36   -344.0400521 -0.216209E-06  0.690E-04    0.14      10.1  T
  37   -344.0400523 -0.180119E-06  0.317E-04    0.14      22.0  T

   *** convergence criteria satisfied after 37 iterations ***

         #    Occupation            Energy/Eh            Energy/eV
      -------------------------------------------------------------
         1        2.0000           -0.7378615             -20.0782
       ...           ...                  ...                  ...
       292        2.0000           -0.2525998              -6.8736
       293        1.9995           -0.2303759              -6.2688
       294        1.9699           -0.2265108              -6.1637
       295        1.9448           -0.2259127              -6.1474
       296        1.8943           -0.2252479              -6.1293
       297        1.7399           -0.2242335              -6.1017
       298        1.3671           -0.2228787              -6.0648 (HOMO)
       299        0.0818           -0.2178726              -5.9286 (LUMO)
       300        0.0027           -0.2145575              -5.8384
       301                         -0.1960304              -5.3343
       302                         -0.1945392              -5.2937
       303                         -0.1943968              -5.2898
       ...                                ...                  ...
       532                          0.8172457              22.2384
      -------------------------------------------------------------
                  HL-Gap            0.0050061 Eh            0.1362 eV
             Fermi-level           -0.2216934 Eh           -6.0326 eV

 SCC (total)                   0 d,  0 h,  0 min,  4.752 sec
 SCC setup                      ...        0 min,  0.012 sec (  0.262%)
 Dispersion                     ...        0 min,  0.029 sec (  0.609%)
 classical contributions        ...        0 min,  0.005 sec (  0.111%)
 integral evaluation            ...        0 min,  0.156 sec (  3.278%)
 iterations                     ...        0 min,  3.885 sec ( 81.750%)
 molecular gradient             ...        0 min,  0.608 sec ( 12.792%)
 printout                       ...        0 min,  0.057 sec (  1.196%)

         :::::::::::::::::::::::::::::::::::::::::::::::::::::
         ::                     SUMMARY                     ::
         :::::::::::::::::::::::::::::::::::::::::::::::::::::
         :: total energy            -339.939690311725 Eh    ::
         :: gradient norm              0.432551170482 Eh/a0 ::
         :: HOMO-LUMO gap              0.136221909293 eV    ::
         ::.................................................::
         :: SCC energy              -344.040052308689 Eh    ::
         :: -> isotropic ES            1.118817798868 Eh    ::
         :: -> anisotropic ES          0.029968418458 Eh    ::
         :: -> anisotropic XC          0.086509771009 Eh    ::
         :: -> dispersion             -0.234789667596 Eh    ::
         :: repulsion energy           4.090348387235 Eh    ::
         :: add. restraining           0.000000000000 Eh    ::
         :: total charge              -0.999999999263 e     ::
         :::::::::::::::::::::::::::::::::::::::::::::::::::::

           -------------------------------------------------
          |                Property Printout                |
           -------------------------------------------------

    * Orbital Energies and Occupations

         #    Occupation            Energy/Eh            Energy/eV
      -------------------------------------------------------------
         1        2.0000           -0.7378615             -20.0782
       ...           ...                  ...                  ...
       286        2.0000           -0.2923693              -7.9558
       287        2.0000           -0.2898278              -7.8866
       288        2.0000           -0.2837061              -7.7200
       289        2.0000           -0.2813613              -7.6562
       290        2.0000           -0.2760745              -7.5124
       291        2.0000           -0.2582103              -7.0263
       292        2.0000           -0.2525998              -6.8736
       293        1.9995           -0.2303759              -6.2688
       294        1.9699           -0.2265108              -6.1637
       295        1.9448           -0.2259127              -6.1474
       296        1.8943           -0.2252479              -6.1293
       297        1.7399           -0.2242335              -6.1017
       298        1.3671           -0.2228787              -6.0648 (HOMO)
       299        0.0818           -0.2178726              -5.9286 (LUMO)
       300        0.0027           -0.2145575              -5.8384
       301                         -0.1960304              -5.3343
       302                         -0.1945392              -5.2937
       303                         -0.1943968              -5.2898
       304                         -0.1897221              -5.1626
       305                         -0.1824922              -4.9659
       306                         -0.1742682              -4.7421
       307                         -0.1708111              -4.6480
       308                         -0.1667447              -4.5374
       309                         -0.1568228              -4.2674
       ...                                ...                  ...
       532                          0.8172457              22.2384
      -------------------------------------------------------------
                  HL-Gap            0.0050061 Eh            0.1362 eV
             Fermi-level           -0.2216934 Eh           -6.0326 eV

     #   Z          covCN         q      C6AA      α(0)
     1   7 N        2.701    -0.184    24.990     7.425
     2   6 C        3.802     0.016    20.307     6.416
     3   6 C        2.770     0.259    22.643     7.793
     4   8 O        0.859    -0.454    22.798     6.402
     5   6 C        3.812    -0.064    21.711     6.632
     6   6 C        2.967    -0.024    28.593     8.771
     7   6 C        2.929    -0.050    29.249     8.869
     8   6 C        2.929    -0.046    29.146     8.854
     9   6 C        2.918    -0.078    29.947     8.974
    10   6 C        2.919    -0.063    29.568     8.917
    11   6 C        2.853     0.157    24.604     8.130
    12   8 O        0.854    -0.639    27.102     6.980
    13   1 H        0.860     0.163     1.317     1.798
    14   1 H        0.924     0.104     1.750     2.069
    15   1 H        0.924     0.024     2.681     2.560
    16   1 H        0.925     0.062     2.181     2.309
    17   1 H        0.925    -0.018     3.386     2.878
    18   1 H        0.924     0.006     2.952     2.687
    19   1 H        0.925    -0.004     3.128     2.766
    20   1 H        0.924     0.025     2.661     2.551
    21   7 N        2.705    -0.194    25.214     7.458
    22   6 C        3.798     0.017    20.297     6.415
    23   6 C        2.768     0.246    22.870     7.832
    24   8 O        0.859    -0.503    23.853     6.548
    25   6 C        3.760    -0.111    22.673     6.788
    26   1 H        0.860     0.166     1.297     1.784
    27   1 H        0.924     0.097     1.808     2.103
    28   1 H        0.925     0.050     2.326     2.385
    29   1 H        0.925     0.066     2.129     2.282
    30   1 H        0.925     0.044     2.398     2.422
    31   7 N        2.705    -0.172    24.728     7.386
    32   6 C        3.804     0.020    20.237     6.404
    33   6 C        2.768     0.267    22.500     7.769
    34   8 O        0.859    -0.460    22.919     6.419
    35   6 C        3.816    -0.089    22.191     6.705
    36   6 C        2.746     0.285    22.171     7.710
    37   8 O        0.860    -0.460    22.926     6.420
    38   7 N        2.642    -0.246    26.425     7.635
    39   1 H        0.860     0.181     1.208     1.722
    40   1 H        0.924     0.090     1.882     2.145
    41   1 H        0.924     0.046     2.368     2.406
    42   1 H        0.925     0.080     1.981     2.201
    43   1 H        0.861     0.208     1.065     1.617
    44   1 H        0.861     0.193     1.143     1.675
    45   7 N        2.704    -0.198    25.305     7.471
    46   6 C        3.802     0.034    19.995     6.366
    47   6 C        2.758     0.274    22.362     7.744
    48   8 O        0.858    -0.414    21.963     6.283
    49   6 C        3.815    -0.103    22.445     6.743
    50   6 C        2.746     0.289    22.095     7.697
    51   8 O        0.860    -0.503    23.852     6.548
    52   7 N        2.642    -0.238    26.216     7.604
    53   1 H        0.860     0.151     1.393     1.849
    54   1 H        0.924     0.060     2.196     2.318
    55   1 H        0.925     0.079     1.991     2.207
    56   1 H        0.924     0.131     1.529     1.934
    57   1 H        0.861     0.193     1.145     1.676
    58   1 H        0.861     0.221     1.006     1.571
    59   7 N        2.690    -0.193    25.188     7.454
    60   6 C        3.799     0.005    20.504     6.447
    61   6 C        2.771     0.270    22.434     7.757
    62   8 O        0.859    -0.424    22.163     6.312
    63   6 C        3.685     0.081    19.415     6.308
    64   8 O        1.657    -0.454    21.915     6.320
    65   1 H        0.860     0.158     1.348     1.819
    66   1 H        0.924     0.094     1.840     2.121
    67   1 H        0.925     0.004     2.994     2.706
    68   1 H        0.925     0.037     2.494     2.470
    69   1 H        0.805     0.325     0.649     1.266
    70   7 N        2.708    -0.174    24.763     7.391
    71   6 C        3.802     0.024    20.176     6.395
    72   6 C        2.767     0.256    22.689     7.801
    73   8 O        0.859    -0.444    22.581     6.371
    74   6 C        3.811    -0.064    21.727     6.635
    75   6 C        2.967     0.004    27.934     8.669
    76   6 C        2.929    -0.041    29.024     8.835
    77   6 C        2.929    -0.036    28.902     8.816
    78   6 C        2.918    -0.043    29.070     8.842
    79   6 C        2.918    -0.038    28.953     8.824
    80   6 C        2.853     0.182    24.094     8.045
    81   8 O        0.854    -0.515    24.120     6.584
    82   1 H        0.860     0.173     1.255     1.755
    83   1 H        0.924     0.062     2.174     2.306
    84   1 H        0.924     0.060     2.195     2.317
    85   1 H        0.925     0.036     2.499     2.472
    86   1 H        0.925     0.020     2.739     2.588
    87   1 H        0.925     0.014     2.822     2.627
    88   1 H        0.925     0.080     1.979     2.200
    89   1 H        0.924     0.053     2.285     2.364
    90   6 C        3.797    -0.101    22.438     6.745
    91  16 S        2.999     0.403   125.700    18.870
    92   6 C        3.797    -0.099    22.398     6.739
    93   6 C        3.851    -0.083    22.044     6.678
    94   6 C        3.788    -0.012    20.798     6.495
    95   6 C        2.697     0.357    20.938     7.489
    96   8 O        0.860    -0.585    25.748     6.803
    97   8 O        0.860    -0.524    24.332     6.614
    98   7 N        3.494    -0.156    24.369     7.332
    99   6 C        3.743    -0.140    23.271     6.882
   100   6 C        3.821     0.090    19.079     6.216
   101   8 O        1.696    -0.338    19.667     5.987
   102   6 C        3.716     0.160    18.131     6.083
   103   6 C        3.731     0.086    19.248     6.263
   104   6 C        3.737     0.072    19.452     6.294
   105   8 O        1.653    -0.419    21.225     6.219
   106   8 O        1.653    -0.418    21.208     6.217
   107   7 N        2.844    -0.055    22.298     7.013
   108   6 C        3.068     0.101    25.693     8.312
   109   7 N        1.935    -0.268    27.795     7.817
   110   6 C        3.145     0.022    27.252     8.541
   111   6 C        2.865     0.169    24.368     8.092
   112   7 N        2.641    -0.284    27.325     7.764
   113   7 N        1.847    -0.305    28.765     7.949
   114   6 C        2.852     0.150    24.738     8.152
   115   7 N        1.842    -0.292    28.415     7.900
   116   6 C        3.072     0.136    24.971     8.193
   117   1 H        0.925     0.088     1.898     2.154
   118   1 H        0.925     0.120     1.609     1.984
   119   1 H        0.925     0.131     1.524     1.931
   120   1 H        0.925     0.040     2.452     2.449
   121   1 H        0.925     0.050     2.325     2.385
   122   1 H        0.924     0.118     1.631     1.997
   123   1 H        0.924     0.073     2.052     2.240
   124   1 H        0.860     0.275     0.792     1.394
   125   1 H        0.860     0.271     0.806     1.407
   126   1 H        0.860     0.255     0.865     1.457
   127   1 H        0.925     0.141     1.451     1.884
   128   1 H        0.924     0.113     1.673     2.023
   129   1 H        0.925     0.174     1.239     1.741
   130   1 H        0.924     0.036     2.504     2.474
   131   1 H        0.925     0.047     2.352     2.398
   132   1 H        0.925     0.079     1.987     2.204
   133   1 H        0.925     0.102     1.763     2.076
   134   1 H        0.805     0.289     0.756     1.365
   135   1 H        0.805     0.296     0.733     1.345
   136   1 H        0.926     0.065     2.142     2.289
   137   1 H        0.862     0.188     1.171     1.695
   138   1 H        0.862     0.227     0.980     1.551
   139   1 H        0.926     0.063     2.160     2.298
   140   6 C        2.687     0.387    20.456     7.402
   141   8 O        0.860    -0.527    24.381     6.620
   142   8 O        0.860    -0.527    24.399     6.623
   143   6 C        3.752    -0.124    22.945     6.831
   144   1 H        0.924     0.049     2.329     2.386
   145   1 H        0.924     0.042     2.418     2.432
   146   1 H        0.924     0.030     2.589     2.516
   147   6 C        2.759     0.282    22.226     7.720
   148   8 O        0.864    -0.471    23.146     6.450
   149   6 C        3.775    -0.132    23.055     6.841
   150   1 H        0.924     0.086     1.918     2.166
   151   1 H        0.925     0.071     2.079     2.255
   152   1 H        0.924     0.031     2.575     2.510
   153   6 C        2.755     0.279    22.285     7.730
   154   8 O        0.863    -0.457    22.860     6.410
   155   6 C        3.776    -0.138    23.183     6.860
   156   1 H        0.925     0.073     2.049     2.239
   157   1 H        0.925     0.045     2.383     2.414
   158   1 H        0.925     0.088     1.901     2.156
   159   6 C        2.758     0.279    22.281     7.730
   160   8 O        0.862    -0.479    23.322     6.475
   161   6 C        3.776    -0.136    23.137     6.853
   162   1 H        0.924     0.078     1.995     2.209
   163   1 H        0.924     0.080     1.984     2.203
   164   1 H        0.925     0.042     2.428     2.437
   165   6 C        2.757     0.276    22.324     7.737
   166   8 O        0.863    -0.427    22.216     6.320
   167   6 C        3.775    -0.139    23.205     6.864
   168   1 H        0.924     0.123     1.586     1.969
   169   1 H        0.925     0.038     2.482     2.464
   170   1 H        0.925     0.050     2.317     2.381
   171   6 C        2.759     0.284    22.189     7.714
   172   8 O        0.862    -0.468    23.089     6.443
   173   6 C        3.778    -0.134    23.108     6.848
   174   1 H        0.924     0.065     2.138     2.287
   175   1 H        0.924     0.039     2.465     2.455
   176   1 H        0.924     0.091     1.866     2.136
   177   7 N        2.688    -0.160    24.459     7.345
   178   1 H        0.860     0.168     1.288     1.777
   179   6 C        3.705    -0.032    21.288     6.596
   180   1 H        0.925     0.058     2.227     2.334
   181   1 H        0.924     0.067     2.115     2.274
   182   1 H        0.925     0.042     2.422     2.434
   183   7 N        2.686    -0.154    24.325     7.325
   184   1 H        0.860     0.177     1.233     1.740
   185   6 C        3.700    -0.043    21.509     6.632
   186   1 H        0.925     0.053     2.286     2.364
   187   1 H        0.924     0.087     1.910     2.161
   188   1 H        0.924     0.059     2.215     2.327
   189   7 N        2.687    -0.146    24.161     7.300
   190   1 H        0.860     0.201     1.099     1.642
   191   6 C        3.702    -0.039    21.426     6.619
   192   1 H        0.925     0.069     2.100     2.266
   193   1 H        0.924     0.065     2.143     2.289
   194   1 H        0.925     0.050     2.315     2.379
   195   7 N        2.687    -0.146    24.153     7.299
   196   1 H        0.860     0.163     1.314     1.796
   197   6 C        3.705    -0.040    21.446     6.620
   198   1 H        0.925     0.058     2.217     2.328
   199   1 H        0.925     0.086     1.921     2.168
   200   1 H        0.925     0.050     2.315     2.380
   201   7 N        2.687    -0.160    24.462     7.346
   202   1 H        0.860     0.173     1.254     1.754
   203   6 C        3.701    -0.033    21.328     6.604
   204   1 H        0.925     0.046     2.374     2.410
   205   1 H        0.925     0.069     2.096     2.264
   206   1 H        0.924     0.057     2.229     2.335

 Mol. C6AA /au·bohr⁶  :     434535.506872
 Mol. C8AA /au·bohr⁸  :    9878709.570712
 Mol. α(0) /au        :        994.428938


Wiberg/Mayer (AO) data.
largest (>0.10) Wiberg bond orders for each atom

 ---------------------------------------------------------------------------
     #   Z sym  total        # sym  WBO       # sym  WBO       # sym  WBO
 ---------------------------------------------------------------------------
     1   7 N    3.449 --   147 C    1.249     2 C    0.976    13 H    0.936
                           148 O    0.190
     2   6 C    3.955 --     1 N    0.976     5 C    0.965     3 C    0.948
                            14 H    0.932
     3   6 C    3.951 --     4 O    1.653   177 N    1.272     2 C    0.948
     4   8 O    1.967 --     3 C    1.653   177 N    0.190
     5   6 C    3.986 --     6 C    1.001    15 H    0.971    16 H    0.968
                             2 C    0.965
     6   6 C    3.948 --     7 C    1.392     8 C    1.382     5 C    1.001
     7   6 C    3.987 --     9 C    1.471     6 C    1.392    17 H    0.967
     8   6 C    3.989 --    10 C    1.488     6 C    1.382    18 H    0.968
     9   6 C    3.957 --     7 C    1.471    11 C    1.291    19 H    0.969
    10   6 C    3.959 --     8 C    1.488    11 C    1.288    20 H    0.970
    11   6 C    3.970 --     9 C    1.291    10 C    1.288    12 O    1.287
    12   8 O    1.574 --    11 C    1.287
    13   1 H    0.973 --     1 N    0.936
    14   1 H    0.989 --     2 C    0.932
    15   1 H    0.998 --     5 C    0.971
    16   1 H    0.995 --     5 C    0.968
    17   1 H    0.999 --     7 C    0.967
    18   1 H    0.999 --     8 C    0.968
    19   1 H    0.999 --     9 C    0.969
    20   1 H    0.999 --    10 C    0.970
    21   7 N    3.425 --   153 C    1.236    22 C    0.973    26 H    0.939
                           154 O    0.189
    22   6 C    3.966 --    25 C    1.004    21 N    0.973    23 C    0.949
                            27 H    0.935
    23   6 C    3.876 --    24 O    1.560   183 N    1.284    22 C    0.949
    24   8 O    1.903 --    23 C    1.560   183 N    0.179
    25   6 C    3.992 --    22 C    1.004    30 H    0.986    29 H    0.982
                            28 H    0.979
    26   1 H    0.972 --    21 N    0.939
    27   1 H    0.987 --    22 C    0.935
    28   1 H    0.997 --    25 C    0.979
    29   1 H    0.995 --    25 C    0.982
    30   1 H    0.998 --    25 C    0.986
    31   7 N    3.455 --   159 C    1.261    32 C    0.982    39 H    0.932
                           160 O    0.192
    32   6 C    3.965 --    31 N    0.982    35 C    0.967    40 H    0.947
                            33 C    0.940
    33   6 C    3.962 --    34 O    1.641   189 N    1.310    32 C    0.940
    34   8 O    1.964 --    33 C    1.641   189 N    0.210
    35   6 C    3.996 --    36 C    0.977    41 H    0.970    32 C    0.967
                            42 H    0.951
    36   6 C    3.950 --    37 O    1.624    38 N    1.313    35 C    0.977
    37   8 O    1.974 --    36 C    1.624    38 N    0.194
    38   7 N    3.417 --    36 C    1.313    44 H    0.940    43 H    0.931
                            37 O    0.194
    39   1 H    0.967 --    31 N    0.932
    40   1 H    0.992 --    32 C    0.947
    41   1 H    0.997 --    35 C    0.970
    42   1 H    0.994 --    35 C    0.951
    43   1 H    0.956 --    38 N    0.931
    44   1 H    0.963 --    38 N    0.940
    45   7 N    3.404 --   165 C    1.215    46 C    0.970    53 H    0.946
                           166 O    0.185
    46   6 C    3.967 --    49 C    0.985    45 N    0.970    54 H    0.949
                            47 C    0.937
    47   6 C    3.947 --    48 O    1.704    59 N    1.231    46 C    0.937
    48   8 O    2.011 --    47 C    1.704    59 N    0.183
    49   6 C    3.975 --    46 C    0.985    50 C    0.972    55 H    0.948
                            56 H    0.944
    50   6 C    3.950 --    51 O    1.614    52 N    1.335    49 C    0.972
    51   8 O    1.914 --    50 C    1.614    52 N    0.197
    52   7 N    3.435 --    50 C    1.335    57 H    0.940    58 H    0.927
                            51 O    0.197
    53   1 H    0.977 --    45 N    0.946
    54   1 H    0.996 --    46 C    0.949
    55   1 H    0.993 --    49 C    0.948
    56   1 H    0.983 --    49 C    0.944
    57   1 H    0.962 --    52 N    0.940
    58   1 H    0.951 --    52 N    0.927
    59   7 N    3.410 --    47 C    1.231    60 C    0.978    65 H    0.939
                            48 O    0.183
    60   6 C    3.965 --    59 N    0.978    63 C    0.970    66 H    0.944
                            61 C    0.933
    61   6 C    3.960 --    62 O    1.681   195 N    1.275    60 C    0.933
    62   8 O    2.000 --    61 C    1.681   195 N    0.203
    63   6 C    3.971 --    64 O    1.016    60 C    0.970    68 H    0.968
                            67 H    0.962
    64   8 O    1.949 --    63 C    1.016    69 H    0.848
    65   1 H    0.975 --    59 N    0.939
    66   1 H    0.991 --    60 C    0.944
    67   1 H    1.000 --    63 C    0.962
    68   1 H    0.998 --    63 C    0.968
    69   1 H    0.894 --    64 O    0.848
    70   7 N    3.446 --   171 C    1.251    71 C    0.975    82 H    0.936
                           172 O    0.190
    71   6 C    3.963 --    70 N    0.975    74 C    0.962    83 H    0.955
                            72 C    0.943
    72   6 C    3.951 --    73 O    1.667   201 N    1.269    71 C    0.943
    73   8 O    1.980 --    72 C    1.667   201 N    0.197
    74   6 C    3.988 --    75 C    1.004    85 H    0.970    84 H    0.969
                            71 C    0.962
    75   6 C    3.885 --    76 C    1.374    77 C    1.373    74 C    1.004
    76   6 C    3.989 --    78 C    1.494    75 C    1.374    86 H    0.968
    77   6 C    3.988 --    79 C    1.496    75 C    1.373    87 H    0.969
    78   6 C    3.892 --    76 C    1.494    80 C    1.263    88 H    0.959
    79   6 C    3.900 --    77 C    1.496    80 C    1.266    89 H    0.967
    80   6 C    3.946 --    81 O    1.329    79 C    1.266    78 C    1.263
    81   8 O    1.516 --    80 C    1.329
    82   1 H    0.970 --    70 N    0.936
    83   1 H    0.996 --    71 C    0.955
    84   1 H    0.995 --    74 C    0.969
    85   1 H    0.996 --    74 C    0.970
    86   1 H    1.000 --    76 C    0.968
    87   1 H    1.000 --    77 C    0.969
    88   1 H    0.993 --    78 C    0.959
    89   1 H    0.997 --    79 C    0.967
    90   6 C    3.968 --   100 C    0.996    91 S    0.976   118 H    0.957
                           117 H    0.947
    91  16 S    3.120 --    99 C    0.989    90 C    0.976    92 C    0.954
    92   6 C    3.961 --    93 C    1.007   120 H    0.961    91 S    0.954
                           119 H    0.952
    93   6 C    3.982 --    92 C    1.007    94 C    0.991   121 H    0.976
                           122 H    0.959
    94   6 C    3.861 --    93 C    0.991   123 H    0.959    98 N    0.915
                            95 C    0.862
    95   6 C    3.957 --    97 O    1.569    96 O    1.501    94 C    0.862
    96   8 O    1.849 --    95 C    1.501    97 O    0.256
    97   8 O    1.913 --    95 C    1.569    96 O    0.256
    98   7 N    3.629 --    94 C    0.915   125 H    0.905   126 H    0.885
                           124 H    0.852
    99   6 C    3.890 --    91 S    0.989   128 H    0.962   127 H    0.955
                           129 H    0.927
   100   6 C    3.946 --    90 C    0.996   104 C    0.964   101 O    0.957
                           130 H    0.955
   101   8 O    2.072 --   100 C    0.957   102 C    0.942
   102   6 C    3.940 --   107 N    0.987   103 C    0.960   131 H    0.952
                           101 O    0.942
   103   6 C    3.956 --   106 O    1.008   102 C    0.960   132 H    0.954
                           104 C    0.952
   104   6 C    3.951 --   105 O    1.006   100 C    0.964   103 C    0.952
                           133 H    0.948
   105   8 O    1.981 --   104 C    1.006   134 H    0.897
   106   8 O    1.979 --   103 C    1.008   135 H    0.891
   107   7 N    3.588 --   108 C    1.187   116 C    1.152   102 C    0.987
                           109 N    0.102
   108   6 C    3.951 --   109 N    1.600   107 N    1.187   136 H    0.957
   109   7 N    3.028 --   108 C    1.600   110 C    1.224   107 N    0.102
   110   6 C    3.975 --   116 C    1.269   111 C    1.225   109 N    1.224
   111   6 C    3.972 --   113 N    1.351   112 N    1.240   110 C    1.225
   112   7 N    3.354 --   111 C    1.240   137 H    0.951   138 H    0.896
   113   7 N    3.065 --   114 C    1.394   111 C    1.351
   114   6 C    3.963 --   115 N    1.456   113 N    1.394   139 H    0.954
   115   7 N    3.041 --   114 C    1.456   116 C    1.318
   116   6 C    3.957 --   115 N    1.318   110 C    1.269   107 N    1.152
   117   1 H    0.992 --    90 C    0.947
   118   1 H    0.985 --    90 C    0.957
   119   1 H    0.982 --    92 C    0.952
   120   1 H    0.998 --    92 C    0.961
   121   1 H    0.997 --    93 C    0.976
   122   1 H    0.986 --    93 C    0.959
   123   1 H    0.994 --    94 C    0.959
   124   1 H    0.924 --    98 N    0.852
   125   1 H    0.926 --    98 N    0.905
   126   1 H    0.935 --    98 N    0.885
   127   1 H    0.980 --    99 C    0.955
   128   1 H    0.987 --    99 C    0.962
   129   1 H    0.969 --    99 C    0.927
   130   1 H    0.999 --   100 C    0.955
   131   1 H    0.998 --   102 C    0.952
   132   1 H    0.994 --   103 C    0.954
   133   1 H    0.989 --   104 C    0.948
   134   1 H    0.916 --   105 O    0.897
   135   1 H    0.912 --   106 O    0.891
   136   1 H    0.995 --   108 C    0.957
   137   1 H    0.965 --   112 N    0.951
   138   1 H    0.948 --   112 N    0.896
   139   1 H    0.996 --   114 C    0.954
   140   6 C    3.924 --   141 O    1.514   142 O    1.498   143 C    0.897
   141   8 O    1.779 --   140 C    1.514   142 O    0.214
   142   8 O    1.787 --   140 C    1.498   141 O    0.214
   143   6 C    3.891 --   146 H    0.985   145 H    0.982   144 H    0.967
                           140 C    0.897
   144   1 H    0.996 --   143 C    0.967
   145   1 H    0.996 --   143 C    0.982
   146   1 H    0.997 --   143 C    0.985
   147   6 C    3.960 --   148 O    1.635     1 N    1.249   149 C    1.031
   148   8 O    1.945 --   147 C    1.635     1 N    0.190
   149   6 C    3.996 --   147 C    1.031   152 H    0.980   151 H    0.964
                           150 H    0.951
   150   1 H    0.992 --   149 C    0.951
   151   1 H    0.995 --   149 C    0.964
   152   1 H    0.999 --   149 C    0.980
   153   6 C    3.958 --   154 O    1.649    21 N    1.236   155 C    1.031
   154   8 O    1.959 --   153 C    1.649    21 N    0.189
   155   6 C    3.994 --   153 C    1.031   157 H    0.975   158 H    0.966
                           156 H    0.950
   156   1 H    0.994 --   155 C    0.950
   157   1 H    0.998 --   155 C    0.975
   158   1 H    0.992 --   155 C    0.966
   159   6 C    3.959 --   160 O    1.624    31 N    1.261   161 C    1.032
   160   8 O    1.933 --   159 C    1.624    31 N    0.192
   161   6 C    3.995 --   159 C    1.032   164 H    0.979   162 H    0.958
                           163 H    0.954
   162   1 H    0.994 --   161 C    0.958
   163   1 H    0.993 --   161 C    0.954
   164   1 H    0.998 --   161 C    0.979
   165   6 C    3.958 --   166 O    1.673    45 N    1.215   167 C    1.030
   166   8 O    1.988 --   165 C    1.673    45 N    0.185
   167   6 C    3.990 --   165 C    1.030   169 H    0.973   168 H    0.961
                           170 H    0.954
   168   1 H    0.985 --   167 C    0.961
   169   1 H    0.999 --   167 C    0.973
   170   1 H    0.997 --   167 C    0.954
   171   6 C    3.958 --   172 O    1.636    70 N    1.251   173 C    1.029
   172   8 O    1.945 --   171 C    1.636    70 N    0.190
   173   6 C    3.996 --   171 C    1.029   175 H    0.979   174 H    0.957
                           176 H    0.957
   174   1 H    0.995 --   173 C    0.957
   175   1 H    0.998 --   173 C    0.979
   176   1 H    0.991 --   173 C    0.957
   177   7 N    3.455 --     3 C    1.272   179 C    1.015   178 H    0.932
                             4 O    0.190
   178   1 H    0.972 --   177 N    0.932
   179   6 C    3.970 --   177 N    1.015   182 H    0.986   180 H    0.973
                           181 H    0.972
   180   1 H    0.997 --   179 C    0.973
   181   1 H    0.995 --   179 C    0.972
   182   1 H    0.998 --   179 C    0.986
   183   7 N    3.454 --    23 C    1.284   185 C    1.016   184 H    0.935
                            24 O    0.179
   184   1 H    0.968 --   183 N    0.935
   185   6 C    3.962 --   183 N    1.016   186 H    0.977   187 H    0.972
                           188 H    0.969
   186   1 H    0.996 --   185 C    0.977
   187   1 H    0.992 --   185 C    0.972
   188   1 H    0.995 --   185 C    0.969
   189   7 N    3.496 --    33 C    1.310   191 C    1.017   190 H    0.908
                            34 O    0.210
   190   1 H    0.959 --   189 N    0.908
   191   6 C    3.968 --   189 N    1.017   194 H    0.983   192 H    0.973
                           193 H    0.968
   192   1 H    0.995 --   191 C    0.973
   193   1 H    0.996 --   191 C    0.968
   194   1 H    0.997 --   191 C    0.983
   195   7 N    3.468 --    61 C    1.275   197 C    1.013   196 H    0.941
                            62 O    0.203
   196   1 H    0.973 --   195 N    0.941
   197   6 C    3.963 --   195 N    1.013   200 H    0.983   199 H    0.971
                           198 H    0.970
   198   1 H    0.996 --   197 C    0.970
   199   1 H    0.993 --   197 C    0.971
   200   1 H    0.997 --   197 C    0.983
   201   7 N    3.458 --    72 C    1.269   203 C    1.015   202 H    0.938
                            73 O    0.197
   202   1 H    0.970 --   201 N    0.938
   203   6 C    3.969 --   201 N    1.015   204 H    0.985   205 H    0.973
                           206 H    0.971
   204   1 H    0.998 --   203 C    0.985
   205   1 H    0.995 --   203 C    0.973
   206   1 H    0.997 --   203 C    0.971
 ---------------------------------------------------------------------------

Topologies differ in bond orders
Writing corrected topology to xtbtopo.mol

molecular dipole:
                 x           y           z       tot (Debye)
 q only:      -75.164    -177.690    -229.540
   full:      -75.657    -177.682    -230.769     764.848
molecular quadrupole (traceless):
                xx          xy          yy          xz          yz          zz
 q only:    36348.403  -20111.193   -2451.456  -25767.259  -61283.708  -33896.947
  q+dip:    36518.320  -20226.074   -2137.084  -26046.276  -61619.615  -34381.236
   full:    36516.668  -20223.238   -2137.085  -26045.622  -61617.513  -34379.582


           -------------------------------------------------
          | TOTAL ENERGY             -339.939690311725 Eh   |
          | GRADIENT NORM               0.432551170482 Eh/α |
          | HOMO-LUMO GAP               0.136221909293 eV   |
           -------------------------------------------------

------------------------------------------------------------------------
 * finished run on 2024/06/15 at 02:31:43.877     
------------------------------------------------------------------------
 total:
 * wall-time:     0 d,  0 h,  0 min,  5.706 sec
 *  cpu-time:     0 d,  0 h,  0 min,  4.956 sec
 * ratio c/w:     0.869 speedup
 SCF:
 * wall-time:     0 d,  0 h,  0 min,  4.758 sec
 *  cpu-time:     0 d,  0 h,  0 min,  4.746 sec
 * ratio c/w:     0.998 speedup

