      -----------------------------------------------------------      
     |                   =====================                   |     
     |                           x T B                           |     
     |                   =====================                   |     
     |                         S. Grimme                         |     
     |          Mulliken Center for Theoretical Chemistry        |     
     |                    University of Bonn                     |     
      -----------------------------------------------------------      

   * xtb version 6.6.1 (8d0f1dd) compiled by 'stahn@M-Bot' on 2023-08-01

   xtb is free software: you can redistribute it and/or modify it under
   the terms of the GNU Lesser General Public License as published by
   the Free Software Foundation, either version 3 of the License, or
   (at your option) any later version.
   
   xtb is distributed in the hope that it will be useful,
   but WITHOUT ANY WARRANTY; without even the implied warranty of
   MERCHANTABILITY or FITNESS FOR A PARTICULAR PURPOSE.  See the
   GNU Lesser General Public License for more details.
   
   Cite this work as:
   * C. Bannwarth, E. Caldeweyher, S. Ehlert, A. Hansen, P. Pracht,
     J. Seibert, S. Spicher, S. Grimme, WIREs Comput. Mol. Sci., 2020, 11,
     e01493. DOI: 10.1002/wcms.1493
   
   for GFN2-xTB:
   * C. Bannwarth, S. Ehlert and S. Grimme., J. Chem. Theory Comput., 2019,
     15, 1652-1671. DOI: 10.1021/acs.jctc.8b01176
   for GFN1-xTB:
   * S. Grimme, C. Bannwarth, P. Shushkov, J. Chem. Theory Comput., 2017,
     13, 1989-2009. DOI: 10.1021/acs.jctc.7b00118
   for GFN0-xTB:
   * P. Pracht, E. Caldeweyher, S. Ehlert, S. Grimme, ChemRxiv, 2019, preprint.
     DOI: 10.26434/chemrxiv.8326202.v1
   for GFN-FF:
   * S. Spicher and S. Grimme, Angew. Chem. Int. Ed., 2020, 59, 15665-15673.
     DOI: 10.1002/anie.202004239
   
   for ALPB and GBSA implicit solvation:
   * S. Ehlert, M. Stahn, S. Spicher, S. Grimme, J. Chem. Theory Comput.,
     2021, 17, 4250-4261. DOI: 10.1021/acs.jctc.1c00471
   
   for DFT-D4:
   * E. Caldeweyher, C. Bannwarth and S. Grimme, J. Chem. Phys., 2017,
     147, 034112. DOI: 10.1063/1.4993215
   * E. Caldeweyher, S. Ehlert, A. Hansen, H. Neugebauer, S. Spicher,
     C. Bannwarth and S. Grimme, J. Chem. Phys., 2019, 150, 154122.
     DOI: 10.1063/1.5090222
   * E. Caldeweyher, J.-M. Mewes, S. Ehlert and S. Grimme, Phys. Chem. Chem. Phys.
     2020, 22, 8499-8512. DOI: 10.1039/D0CP00502A
   
   for sTDA-xTB:
   * S. Grimme and C. Bannwarth, J. Chem. Phys., 2016, 145, 054103.
     DOI: 10.1063/1.4959605
   
   in the mass-spec context:
   * V. Asgeirsson, C. Bauer and S. Grimme, Chem. Sci., 2017, 8, 4879.
     DOI: 10.1039/c7sc00601b
   * J. Koopman and S. Grimme, ACS Omega 2019, 4, 12, 15120-15133.
     DOI: 10.1021/acsomega.9b02011
   
   for metadynamics refer to:
   * S. Grimme, J. Chem. Theory Comput., 2019, 155, 2847-2862
     DOI: 10.1021/acs.jctc.9b00143
   
   for SPH calculations refer to:
   * S. Spicher and S. Grimme, J. Chem. Theory Comput., 2021, 17, 1701-1714
     DOI: 10.1021/acs.jctc.0c01306
   
   with help from (in alphabetical order)
   P. Atkinson, C. Bannwarth, F. Bohle, G. Brandenburg, E. Caldeweyher
   M. Checinski, S. Dohm, S. Ehlert, S. Ehrlich, I. Gerasimov, C. Hölzer
   A. Katbashev, J. Koopman, C. Lavigne, S. Lehtola, F. März, M. Müller,
   F. Musil, H. Neugebauer, J. Pisarek, C. Plett, P. Pracht, F. Pultar,
   J. Seibert, P. Shushkov, S. Spicher, M. Stahn, M. Steiner, T. Strunk,
   J. Stückrath, T. Rose, and J. Unsleber
   
 * started run on 2024/06/10 at 11:50:58.931     

           -------------------------------------------------
          |                Calculation Setup                |
           -------------------------------------------------

          program call               : /home/jurichc/xtb-6.6.1/bin/xtb --chrg -1 --iterations 1000 --parallel 1 --norestart --sp /panfs/accrepfs.vampire/data/yang_lab/jurichc/enzy_rcd_benchmarking/enzy_rcd_no_qm/1nbh/QM_SPE/xtb_coords.mol
          hostname                   : cn1464
          coordinate file            : /panfs/accrepfs.vampire/data/yang_lab/jurichc/enzy_rcd_benchmarking/enzy_rcd_no_qm/1nbh/QM_SPE/xtb_coords.mol
          omp threads                :                     1

   ID    Z sym.   atoms
    1    7 N      1, 21, 31, 41, 48, 55, 62, 69, 76, 87, 115, 124, 126, 129,
                  130, 132, 194, 200, 206, 212, 218
    2    6 C      2, 3, 5-11, 22, 23, 25, 32, 33, 35, 42, 43, 45, 46, 56, 57,
                  63, 64, 66, 67, 77, 78, 80, 88, 89, 91-97, 107, 109-112,
                  116, 117, 119-121, 125, 127, 128, 131, 133, 157, 160, 164,
                  166, 170, 172, 176, 178, 182, 184, 188, 190, 196, 202, 208,
                  214, 220
    3    8 O      4, 12, 24, 34, 44, 47, 58, 65, 68, 79, 81, 90, 98, 113,
                  114, 118, 122, 123, 158, 159, 165, 171, 177, 183, 189
    4    1 H      13-20, 26-30, 36-40, 49-54, 59-61, 70-75, 82-86, 99-106,
                  134-156, 161-163, 167-169, 173-175, 179-181, 185-187,
                  191-193, 195, 197-199, 201, 203-205, 207, 209-211, 213,
                  215-217, 219, 221-223
    5   16 S      108

molecular fragmentation (1/2 indicates fragments):
111111111111111111112222222222222222222222222222222222222222222222222222
222222222222222222222222222222222222222222222222222222222222222222222222
222222222222222222211111122222222222222222222222211111122222222222222222
2222222
# atoms in fragment 1/2:    32   191
 fragment masses (1/2) :      235.26     1427.52
CMA distance (Bohr)    :  17.514
constraining FC (au)   :  0.0500
########################################################################
[WARNING] Please study the warnings concerning your input carefully
-1- prog_main: Charge in sdf/mol input was overwritten
########################################################################

           -------------------------------------------------
          |                 G F N 2 - x T B                 |
           -------------------------------------------------

        Reference                      10.1021/acs.jctc.8b01176
      * Hamiltonian:
        H0-scaling (s, p, d)           1.850000    2.230000    2.230000
        zeta-weighting                 0.500000
      * Dispersion:
        s8                             2.700000
        a1                             0.520000
        a2                             5.000000
        s9                             5.000000
      * Repulsion:
        kExp                           1.500000    1.000000
        rExp                           1.000000
      * Coulomb:
        alpha                          2.000000
        third order                    shell-resolved
        anisotropic                    true
        a3                             3.000000
        a5                             4.000000
        cn-shift                       1.200000
        cn-exp                         4.000000
        max-rad                        5.000000


          ...................................................
          :                      SETUP                      :
          :.................................................:
          :  # basis functions                 577          :
          :  # atomic orbitals                 576          :
          :  # shells                          340          :
          :  # electrons                       645          :
          :  max. iterations                  1000          :
          :  Hamiltonian                  GFN2-xTB          :
          :  restarted?                      false          :
          :  GBSA solvation                  false          :
          :  PC potential                    false          :
          :  electronic temp.          300.0000000     K    :
          :  accuracy                    1.0000000          :
          :  -> integral cutoff          0.2500000E+02      :
          :  -> integral neglect         0.1000000E-07      :
          :  -> SCF convergence          0.1000000E-05 Eh   :
          :  -> wf. convergence          0.1000000E-03 e    :
          :  Broyden damping             0.4000000          :
          ...................................................

 iter      E             dE          RMSdq      gap      omega  full diag
   1   -371.2479455 -0.371248E+03  0.458E+00    2.89       0.0  T
   2   -369.8556012  0.139234E+01  0.325E+00    0.11       1.0  T
   3   -360.9736131  0.888199E+01  0.368E+00    0.15       1.0  T
   4   -358.7040012  0.226961E+01  0.426E+00    0.05       1.0  T
   5   -372.7463474 -0.140423E+02  0.184E+00    1.80       1.0  T
   6   -372.9786068 -0.232259E+00  0.114E+00    1.42       1.0  T
   7   -372.9661872  0.124196E-01  0.869E-01    0.66       1.0  T
   8   -373.0479703 -0.817831E-01  0.661E-01    0.53       1.0  T
   9   -373.0558245 -0.785424E-02  0.506E-01    0.92       1.0  T
  10   -373.1090436 -0.532191E-01  0.422E-01    0.54       1.0  T
  11   -373.0785926  0.304510E-01  0.483E-01    0.69       1.0  T
  12   -373.1128002 -0.342076E-01  0.371E-01    0.63       1.0  T
  13   -373.1304956 -0.176954E-01  0.294E-01    0.70       1.0  T
  14   -373.0438401  0.866555E-01  0.452E-01    0.63       1.0  T
  15   -373.1536690 -0.109829E+00  0.153E-01    0.70       1.0  T
  16   -373.1638855 -0.102164E-01  0.377E-02    0.69       1.0  T
  17   -373.1624077  0.147772E-02  0.558E-02    0.67       1.0  T
  18   -373.1607986  0.160915E-02  0.876E-02    0.64       1.0  T
  19   -373.1601412  0.657424E-03  0.818E-02    0.60       1.0  T
  20   -373.1640959 -0.395479E-02  0.218E-02    0.56       1.0  T
  21   -373.1641383 -0.423167E-04  0.158E-02    0.53       1.0  T
  22   -373.1639877  0.150526E-03  0.256E-02    0.47       1.0  T
  23   -373.1641671 -0.179322E-03  0.930E-03    0.40       1.0  T
  24   -373.1640817  0.853384E-04  0.147E-02    0.38       1.0  T
  25   -373.1640137  0.679744E-04  0.185E-02    0.38       1.0  T
  26   -373.1641365 -0.122759E-03  0.114E-02    0.37       1.0  T
  27   -373.1641877 -0.512021E-04  0.667E-03    0.37       1.0  T
  28   -373.1641916 -0.391771E-05  0.594E-03    0.37       1.1  T
  29   -373.1641952 -0.358885E-05  0.527E-03    0.37       1.3  T
  30   -373.1642070 -0.118182E-04  0.174E-03    0.37       3.8  T
  31   -373.1642076 -0.521246E-06  0.137E-03    0.37       4.9  T
  32   -373.1642084 -0.814550E-06  0.657E-04    0.37      10.2  T
  33   -373.1642086 -0.201323E-06  0.182E-04    0.37      36.9  T

   *** convergence criteria satisfied after 33 iterations ***

         #    Occupation            Energy/Eh            Energy/eV
      -------------------------------------------------------------
         1        2.0000           -0.7478098             -20.3489
       ...           ...                  ...                  ...
       317        2.0000           -0.2578147              -7.0155
       318        1.9999           -0.2358345              -6.4174
       319        1.9970           -0.2328773              -6.3369
       320        1.9721           -0.2307277              -6.2784
       321        1.8198           -0.2287943              -6.2258
       322        1.7138           -0.2282233              -6.2103
       323        1.4965           -0.2273430              -6.1863 (HOMO)
       324        0.0009           -0.2136010              -5.8124 (LUMO)
       325        0.0000           -0.2067794              -5.6268
       326        0.0000           -0.2052919              -5.5863
       327                         -0.2022822              -5.5044
       328                         -0.1987761              -5.4090
       ...                                ...                  ...
       576                          0.8167302              22.2244
      -------------------------------------------------------------
                  HL-Gap            0.0137420 Eh            0.3739 eV
             Fermi-level           -0.2237950 Eh           -6.0898 eV

 SCC (total)                   0 d,  0 h,  0 min,  5.856 sec
 SCC setup                      ...        0 min,  0.017 sec (  0.296%)
 Dispersion                     ...        0 min,  0.039 sec (  0.668%)
 classical contributions        ...        0 min,  0.008 sec (  0.131%)
 integral evaluation            ...        0 min,  0.179 sec (  3.061%)
 iterations                     ...        0 min,  4.711 sec ( 80.459%)
 molecular gradient             ...        0 min,  0.819 sec ( 13.993%)
 printout                       ...        0 min,  0.081 sec (  1.389%)

         :::::::::::::::::::::::::::::::::::::::::::::::::::::
         ::                     SUMMARY                     ::
         :::::::::::::::::::::::::::::::::::::::::::::::::::::
         :: total energy            -368.737228893788 Eh    ::
         :: gradient norm              0.430417471470 Eh/a0 ::
         :: HOMO-LUMO gap              0.373940026556 eV    ::
         ::.................................................::
         :: SCC energy              -373.164208569445 Eh    ::
         :: -> isotropic ES            1.204512185343 Eh    ::
         :: -> anisotropic ES          0.035204740686 Eh    ::
         :: -> anisotropic XC          0.091850785661 Eh    ::
         :: -> dispersion             -0.252396589158 Eh    ::
         :: repulsion energy           4.416187377629 Eh    ::
         :: add. restraining           0.000000000000 Eh    ::
         :: total charge              -0.999999998950 e     ::
         :::::::::::::::::::::::::::::::::::::::::::::::::::::

           -------------------------------------------------
          |                Property Printout                |
           -------------------------------------------------

    * Orbital Energies and Occupations

         #    Occupation            Energy/Eh            Energy/eV
      -------------------------------------------------------------
         1        2.0000           -0.7478098             -20.3489
       ...           ...                  ...                  ...
       311        2.0000           -0.3036081              -8.2616
       312        2.0000           -0.2989731              -8.1355
       313        2.0000           -0.2935147              -7.9869
       314        2.0000           -0.2931283              -7.9764
       315        2.0000           -0.2803809              -7.6296
       316        2.0000           -0.2739141              -7.4536
       317        2.0000           -0.2578147              -7.0155
       318        1.9999           -0.2358345              -6.4174
       319        1.9970           -0.2328773              -6.3369
       320        1.9721           -0.2307277              -6.2784
       321        1.8198           -0.2287943              -6.2258
       322        1.7138           -0.2282233              -6.2103
       323        1.4965           -0.2273430              -6.1863 (HOMO)
       324        0.0009           -0.2136010              -5.8124 (LUMO)
       325        0.0000           -0.2067794              -5.6268
       326        0.0000           -0.2052919              -5.5863
       327                         -0.2022822              -5.5044
       328                         -0.1987761              -5.4090
       329                         -0.1935752              -5.2674
       330                         -0.1901813              -5.1751
       331                         -0.1900840              -5.1724
       332                         -0.1888340              -5.1384
       333                         -0.1725935              -4.6965
       334                         -0.1718571              -4.6765
       ...                                ...                  ...
       576                          0.8167302              22.2244
      -------------------------------------------------------------
                  HL-Gap            0.0137420 Eh            0.3739 eV
             Fermi-level           -0.2237950 Eh           -6.0898 eV

     #   Z          covCN         q      C6AA      α(0)
     1   7 N        2.701    -0.185    25.008     7.427
     2   6 C        3.802     0.016    20.301     6.415
     3   6 C        2.770     0.259    22.643     7.793
     4   8 O        0.859    -0.454    22.784     6.400
     5   6 C        3.812    -0.063    21.706     6.631
     6   6 C        2.967    -0.021    28.516     8.759
     7   6 C        2.929    -0.050    29.245     8.869
     8   6 C        2.929    -0.045    29.113     8.849
     9   6 C        2.919    -0.076    29.908     8.968
    10   6 C        2.919    -0.061    29.518     8.909
    11   6 C        2.852     0.158    24.588     8.127
    12   8 O        0.854    -0.634    26.971     6.963
    13   1 H        0.860     0.165     1.306     1.790
    14   1 H        0.924     0.102     1.762     2.076
    15   1 H        0.924     0.025     2.658     2.549
    16   1 H        0.925     0.063     2.165     2.301
    17   1 H        0.925    -0.016     3.359     2.866
    18   1 H        0.925     0.011     2.867     2.648
    19   1 H        0.925    -0.003     3.107     2.757
    20   1 H        0.924     0.030     2.590     2.517
    21   7 N        2.705    -0.192    25.171     7.451
    22   6 C        3.799     0.017    20.286     6.413
    23   6 C        2.769     0.255    22.719     7.806
    24   8 O        0.859    -0.464    22.993     6.429
    25   6 C        3.760    -0.112    22.689     6.791
    26   1 H        0.860     0.165     1.301     1.787
    27   1 H        0.925     0.096     1.821     2.110
    28   1 H        0.924     0.064     2.153     2.295
    29   1 H        0.924     0.060     2.202     2.320
    30   1 H        0.925     0.050     2.323     2.384
    31   7 N        2.706    -0.177    24.827     7.400
    32   6 C        3.800     0.031    20.059     6.377
    33   6 C        2.760     0.258    22.649     7.793
    34   8 O        0.859    -0.458    22.870     6.412
    35   6 C        3.757    -0.114    22.733     6.798
    36   1 H        0.860     0.187     1.175     1.698
    37   1 H        0.925     0.057     2.234     2.337
    38   1 H        0.925     0.043     2.406     2.426
    39   1 H        0.925     0.080     1.977     2.199
    40   1 H        0.925     0.050     2.325     2.384
    41   7 N        2.690    -0.158    24.410     7.338
    42   6 C        3.804     0.020    20.233     6.404
    43   6 C        2.768     0.267    22.494     7.767
    44   8 O        0.859    -0.458    22.869     6.412
    45   6 C        3.816    -0.090    22.202     6.706
    46   6 C        2.746     0.285    22.167     7.709
    47   8 O        0.860    -0.462    22.968     6.426
    48   7 N        2.642    -0.246    26.409     7.632
    49   1 H        0.860     0.188     1.169     1.694
    50   1 H        0.924     0.092     1.859     2.132
    51   1 H        0.924     0.046     2.366     2.405
    52   1 H        0.924     0.082     1.960     2.189
    53   1 H        0.861     0.208     1.064     1.616
    54   1 H        0.861     0.193     1.145     1.676
    55   7 N        2.702    -0.182    24.946     7.418
    56   6 C        3.746    -0.028    21.147     6.560
    57   6 C        2.753     0.260    22.614     7.787
    58   8 O        0.859    -0.388    21.451     6.210
    59   1 H        0.860     0.171     1.266     1.763
    60   1 H        0.925     0.085     1.928     2.172
    61   1 H        0.925     0.083     1.946     2.181
    62   7 N        2.690    -0.178    24.859     7.405
    63   6 C        3.802     0.033    20.019     6.370
    64   6 C        2.758     0.274    22.360     7.743
    65   8 O        0.858    -0.396    21.610     6.233
    66   6 C        3.815    -0.094    22.278     6.718
    67   6 C        2.746     0.286    22.154     7.707
    68   8 O        0.860    -0.509    23.991     6.567
    69   7 N        2.642    -0.244    26.357     7.625
    70   1 H        0.860     0.158     1.349     1.819
    71   1 H        0.924     0.068     2.105     2.269
    72   1 H        0.924     0.058     2.224     2.332
    73   1 H        0.925     0.108     1.710     2.045
    74   1 H        0.861     0.195     1.134     1.668
    75   1 H        0.861     0.253     0.873     1.464
    76   7 N        2.690    -0.189    25.094     7.440
    77   6 C        3.799     0.005    20.490     6.445
    78   6 C        2.771     0.271    22.419     7.755
    79   8 O        0.859    -0.419    22.057     6.297
    80   6 C        3.685     0.080    19.444     6.313
    81   8 O        1.657    -0.452    21.879     6.314
    82   1 H        0.860     0.156     1.362     1.828
    83   1 H        0.924     0.098     1.806     2.102
    84   1 H        0.925     0.015     2.817     2.625
    85   1 H        0.925     0.039     2.458     2.452
    86   1 H        0.806     0.323     0.656     1.272
    87   7 N        2.709    -0.171    24.692     7.380
    88   6 C        3.802     0.023    20.194     6.398
    89   6 C        2.767     0.256    22.690     7.801
    90   8 O        0.859    -0.442    22.544     6.366
    91   6 C        3.811    -0.066    21.752     6.639
    92   6 C        2.967    -0.002    28.079     8.692
    93   6 C        2.929    -0.039    28.970     8.827
    94   6 C        2.929    -0.037    28.910     8.818
    95   6 C        2.918    -0.042    29.056     8.839
    96   6 C        2.918    -0.055    29.370     8.887
    97   6 C        2.853     0.168    24.384     8.093
    98   8 O        0.854    -0.576    25.537     6.775
    99   1 H        0.860     0.173     1.253     1.754
   100   1 H        0.924     0.062     2.179     2.308
   101   1 H        0.924     0.062     2.177     2.308
   102   1 H        0.925     0.039     2.468     2.457
   103   1 H        0.924     0.018     2.758     2.597
   104   1 H        0.925     0.019     2.749     2.593
   105   1 H        0.925     0.042     2.420     2.433
   106   1 H        0.924     0.041     2.442     2.444
   107   6 C        3.797    -0.101    22.438     6.745
   108  16 S        2.999     0.404   125.655    18.867
   109   6 C        3.798    -0.114    22.680     6.781
   110   6 C        3.851    -0.087    22.129     6.691
   111   6 C        3.788    -0.015    20.859     6.505
   112   6 C        2.697     0.354    20.988     7.498
   113   8 O        0.860    -0.568    25.345     6.750
   114   8 O        0.860    -0.545    24.812     6.678
   115   7 N        3.494    -0.153    24.291     7.320
   116   6 C        3.743    -0.148    23.443     6.907
   117   6 C        3.820     0.086    19.139     6.226
   118   8 O        1.695    -0.337    19.661     5.987
   119   6 C        3.715     0.160    18.137     6.084
   120   6 C        3.730     0.085    19.261     6.265
   121   6 C        3.736     0.074    19.418     6.288
   122   8 O        1.653    -0.420    21.241     6.222
   123   8 O        1.653    -0.421    21.259     6.224
   124   7 N        2.842    -0.055    22.298     7.013
   125   6 C        3.066     0.103    25.660     8.306
   126   7 N        1.933    -0.267    27.765     7.813
   127   6 C        3.143     0.022    27.263     8.543
   128   6 C        2.864     0.168    24.387     8.095
   129   7 N        2.641    -0.276    27.129     7.736
   130   7 N        1.847    -0.308    28.843     7.960
   131   6 C        2.852     0.149    24.754     8.154
   132   7 N        1.842    -0.294    28.474     7.908
   133   6 C        3.070     0.135    24.993     8.197
   134   1 H        0.924     0.091     1.867     2.137
   135   1 H        0.925     0.142     1.445     1.880
   136   1 H        0.925     0.110     1.695     2.036
   137   1 H        0.925     0.075     2.035     2.231
   138   1 H        0.924     0.079     1.992     2.207
   139   1 H        0.924     0.101     1.778     2.085
   140   1 H        0.925     0.090     1.877     2.142
   141   1 H        0.860     0.258     0.852     1.446
   142   1 H        0.860     0.269     0.815     1.414
   143   1 H        0.860     0.282     0.768     1.373
   144   1 H        0.925     0.149     1.399     1.850
   145   1 H        0.925     0.113     1.669     2.020
   146   1 H        0.925     0.169     1.271     1.763
   147   1 H        0.924     0.047     2.363     2.404
   148   1 H        0.925     0.048     2.351     2.398
   149   1 H        0.925     0.080     1.974     2.197
   150   1 H        0.924     0.099     1.794     2.095
   151   1 H        0.805     0.292     0.746     1.357
   152   1 H        0.805     0.295     0.736     1.348
   153   1 H        0.926     0.071     2.073     2.251
   154   1 H        0.862     0.192     1.150     1.680
   155   1 H        0.862     0.219     1.014     1.578
   156   1 H        0.926     0.063     2.167     2.302
   157   6 C        2.687     0.396    20.314     7.376
   158   8 O        0.860    -0.558    25.104     6.718
   159   8 O        0.860    -0.496    23.705     6.528
   160   6 C        3.752    -0.122    22.895     6.823
   161   1 H        0.925     0.039     2.456     2.451
   162   1 H        0.924     0.052     2.295     2.369
   163   1 H        0.924     0.051     2.304     2.374
   164   6 C        2.759     0.282    22.227     7.720
   165   8 O        0.864    -0.472    23.162     6.453
   166   6 C        3.775    -0.132    23.069     6.844
   167   1 H        0.924     0.088     1.903     2.157
   168   1 H        0.925     0.071     2.078     2.254
   169   1 H        0.924     0.032     2.564     2.504
   170   6 C        2.755     0.278    22.292     7.731
   171   8 O        0.863    -0.461    22.941     6.422
   172   6 C        3.776    -0.137    23.168     6.858
   173   1 H        0.924     0.072     2.061     2.245
   174   1 H        0.924     0.044     2.395     2.420
   175   1 H        0.924     0.086     1.918     2.166
   176   6 C        2.759     0.283    22.203     7.716
   177   8 O        0.863    -0.479    23.324     6.475
   178   6 C        3.776    -0.138    23.185     6.860
   179   1 H        0.924     0.048     2.340     2.392
   180   1 H        0.924     0.072     2.059     2.244
   181   1 H        0.924     0.078     1.997     2.210
   182   6 C        2.756     0.282    22.220     7.719
   183   8 O        0.863    -0.494    23.657     6.521
   184   6 C        3.779    -0.141    23.241     6.868
   185   1 H        0.924     0.080     1.982     2.202
   186   1 H        0.925     0.046     2.369     2.407
   187   1 H        0.925     0.079     1.988     2.205
   188   6 C        2.759     0.282    22.219     7.719
   189   8 O        0.863    -0.471    23.155     6.452
   190   6 C        3.779    -0.132    23.056     6.841
   191   1 H        0.925     0.066     2.132     2.283
   192   1 H        0.924     0.038     2.474     2.460
   193   1 H        0.925     0.077     2.013     2.219
   194   7 N        2.688    -0.160    24.456     7.345
   195   1 H        0.860     0.168     1.286     1.776
   196   6 C        3.705    -0.032    21.290     6.596
   197   1 H        0.925     0.058     2.225     2.333
   198   1 H        0.924     0.067     2.114     2.274
   199   1 H        0.925     0.042     2.421     2.433
   200   7 N        2.686    -0.152    24.287     7.319
   201   1 H        0.860     0.175     1.246     1.748
   202   6 C        3.701    -0.045    21.535     6.636
   203   1 H        0.925     0.051     2.302     2.373
   204   1 H        0.925     0.091     1.873     2.140
   205   1 H        0.925     0.061     2.188     2.313
   206   7 N        2.687    -0.144    24.110     7.293
   207   1 H        0.860     0.202     1.097     1.641
   208   6 C        3.702    -0.041    21.458     6.624
   209   1 H        0.925     0.073     2.053     2.241
   210   1 H        0.925     0.064     2.149     2.292
   211   1 H        0.924     0.051     2.311     2.378
   212   7 N        2.687    -0.147    24.180     7.303
   213   1 H        0.860     0.160     1.333     1.808
   214   6 C        3.705    -0.040    21.449     6.621
   215   1 H        0.925     0.057     2.234     2.338
   216   1 H        0.924     0.087     1.904     2.158
   217   1 H        0.925     0.048     2.340     2.392
   218   7 N        2.687    -0.160    24.451     7.344
   219   1 H        0.860     0.173     1.256     1.756
   220   6 C        3.701    -0.034    21.341     6.606
   221   1 H        0.925     0.046     2.369     2.407
   222   1 H        0.925     0.070     2.091     2.261
   223   1 H        0.925     0.059     2.209     2.324

 Mol. C6AA /au·bohr⁶  :     507657.405459
 Mol. C8AA /au·bohr⁸  :   11523367.367842
 Mol. α(0) /au        :       1073.869087


Wiberg/Mayer (AO) data.
largest (>0.10) Wiberg bond orders for each atom

 ---------------------------------------------------------------------------
     #   Z sym  total        # sym  WBO       # sym  WBO       # sym  WBO
 ---------------------------------------------------------------------------
     1   7 N    3.448 --   164 C    1.249     2 C    0.976    13 H    0.935
                           165 O    0.190
     2   6 C    3.955 --     1 N    0.976     5 C    0.964     3 C    0.948
                            14 H    0.933
     3   6 C    3.952 --     4 O    1.654   194 N    1.272     2 C    0.948
     4   8 O    1.967 --     3 C    1.654   194 N    0.190
     5   6 C    3.987 --     6 C    1.002    15 H    0.972    16 H    0.967
                             2 C    0.964
     6   6 C    3.936 --     7 C    1.391     8 C    1.379     5 C    1.002
     7   6 C    3.986 --     9 C    1.472     6 C    1.391    17 H    0.966
     8   6 C    3.990 --    10 C    1.491     6 C    1.379    18 H    0.969
     9   6 C    3.942 --     7 C    1.472    11 C    1.286    19 H    0.968
    10   6 C    3.945 --     8 C    1.491    11 C    1.283    20 H    0.969
    11   6 C    3.969 --    12 O    1.299     9 C    1.286    10 C    1.283
    12   8 O    1.527 --    11 C    1.299
    13   1 H    0.973 --     1 N    0.935
    14   1 H    0.989 --     2 C    0.933
    15   1 H    0.998 --     5 C    0.972
    16   1 H    0.995 --     5 C    0.967
    17   1 H    0.999 --     7 C    0.966
    18   1 H    0.999 --     8 C    0.969
    19   1 H    1.000 --     9 C    0.968
    20   1 H    0.999 --    10 C    0.969
    21   7 N    3.432 --   170 C    1.241    22 C    0.972    26 H    0.940
                           171 O    0.190
    22   6 C    3.964 --    25 C    1.003    21 N    0.972    23 C    0.947
                            27 H    0.935
    23   6 C    3.956 --    24 O    1.636   200 N    1.292    22 C    0.947
    24   8 O    1.960 --    23 C    1.636   200 N    0.198
    25   6 C    3.990 --    22 C    1.003    30 H    0.985    29 H    0.983
                            28 H    0.977
    26   1 H    0.973 --    21 N    0.940
    27   1 H    0.991 --    22 C    0.935
    28   1 H    0.995 --    25 C    0.977
    29   1 H    0.996 --    25 C    0.983
    30   1 H    0.998 --    25 C    0.985
    31   7 N    3.446 --   176 C    1.263    32 C    0.988    36 H    0.927
                           177 O    0.191
    32   6 C    3.975 --    31 N    0.988    35 C    0.984    37 H    0.951
                            33 C    0.949
    33   6 C    3.954 --    34 O    1.645    41 N    1.294    32 C    0.949
    34   8 O    1.972 --    33 C    1.645    41 N    0.197
    35   6 C    3.989 --    40 H    0.986    32 C    0.984    38 H    0.984
                            39 H    0.976
    36   1 H    0.965 --    31 N    0.927
    37   1 H    0.997 --    32 C    0.951
    38   1 H    0.998 --    35 C    0.984
    39   1 H    0.993 --    35 C    0.976
    40   1 H    0.998 --    35 C    0.986
    41   7 N    3.474 --    33 C    1.294    42 C    0.977    49 H    0.932
                            34 O    0.197
    42   6 C    3.960 --    41 N    0.977    45 C    0.968    50 H    0.947
                            43 C    0.938
    43   6 C    3.962 --    44 O    1.642   206 N    1.312    42 C    0.938
    44   8 O    1.968 --    43 C    1.642   206 N    0.211
    45   6 C    3.995 --    46 C    0.975    51 H    0.970    42 C    0.968
                            52 H    0.951
    46   6 C    3.951 --    47 O    1.632    48 N    1.312    45 C    0.975
    47   8 O    1.964 --    46 C    1.632    48 N    0.195
    48   7 N    3.417 --    46 C    1.312    54 H    0.941    53 H    0.932
                            47 O    0.195
    49   1 H    0.965 --    41 N    0.932
    50   1 H    0.991 --    42 C    0.947
    51   1 H    0.997 --    45 C    0.970
    52   1 H    0.993 --    45 C    0.951
    53   1 H    0.956 --    48 N    0.932
    54   1 H    0.963 --    48 N    0.941
    55   7 N    3.454 --   182 C    1.264    56 C    0.989    59 H    0.939
                           183 O    0.190
    56   6 C    3.956 --    55 N    0.989    61 H    0.958    60 H    0.952
                            57 C    0.939
    57   6 C    3.961 --    58 O    1.698    62 N    1.258    56 C    0.939
    58   8 O    2.045 --    57 C    1.698    62 N    0.201
    59   1 H    0.971 --    55 N    0.939
    60   1 H    0.993 --    56 C    0.952
    61   1 H    0.993 --    56 C    0.958
    62   7 N    3.440 --    57 C    1.258    63 C    0.962    70 H    0.943
                            58 O    0.201
    63   6 C    3.958 --    66 C    0.987    62 N    0.962    71 H    0.949
                            64 C    0.934
    64   6 C    3.954 --    65 O    1.714    76 N    1.235    63 C    0.934
    65   8 O    2.028 --    64 C    1.714    76 N    0.190
    66   6 C    3.983 --    63 C    0.987    67 C    0.963    73 H    0.959
                            72 H    0.955
    67   6 C    3.957 --    68 O    1.601    69 N    1.369    66 C    0.963
    68   8 O    1.908 --    67 C    1.601    69 N    0.208
    69   7 N    3.453 --    67 C    1.369    74 H    0.939    75 H    0.884
                            68 O    0.208
    70   1 H    0.975 --    62 N    0.943
    71   1 H    0.995 --    63 C    0.949
    72   1 H    0.996 --    66 C    0.955
    73   1 H    0.988 --    66 C    0.959
    74   1 H    0.961 --    69 N    0.939
    75   1 H    0.936 --    69 N    0.884
    76   7 N    3.418 --    64 C    1.235    77 C    0.976    82 H    0.940
                            65 O    0.190
    77   6 C    3.961 --    76 N    0.976    80 C    0.970    83 H    0.947
                            78 C    0.933
    78   6 C    3.960 --    79 O    1.686   212 N    1.270    77 C    0.933
    79   8 O    2.006 --    78 C    1.686   212 N    0.203
    80   6 C    3.969 --    81 O    1.014    77 C    0.970    85 H    0.968
                            84 H    0.963
    81   8 O    1.950 --    80 C    1.014    86 H    0.853
    82   1 H    0.976 --    76 N    0.940
    83   1 H    0.990 --    77 C    0.947
    84   1 H    0.999 --    80 C    0.963
    85   1 H    0.998 --    80 C    0.968
    86   1 H    0.896 --    81 O    0.853
    87   7 N    3.456 --   188 C    1.262    88 C    0.972    99 H    0.936
                           189 O    0.194
    88   6 C    3.961 --    87 N    0.972    91 C    0.962   100 H    0.956
                            89 C    0.942
    89   6 C    3.951 --    90 O    1.668   218 N    1.270    88 C    0.942
    90   8 O    1.983 --    89 C    1.668   218 N    0.198
    91   6 C    3.986 --    92 C    1.002   102 H    0.970   101 H    0.969
                            88 C    0.962
    92   6 C    3.901 --    93 C    1.380    94 C    1.378    91 C    1.002
    93   6 C    3.989 --    95 C    1.488    92 C    1.380   103 H    0.968
    94   6 C    3.988 --    96 C    1.489    92 C    1.378   104 H    0.969
    95   6 C    3.914 --    93 C    1.488    97 C    1.276   105 H    0.967
    96   6 C    3.918 --    94 C    1.489    97 C    1.280   106 H    0.968
    97   6 C    3.953 --    98 O    1.302    96 C    1.280    95 C    1.276
    98   8 O    1.535 --    97 C    1.302
    99   1 H    0.970 --    87 N    0.936
   100   1 H    0.996 --    88 C    0.956
   101   1 H    0.995 --    91 C    0.969
   102   1 H    0.996 --    91 C    0.970
   103   1 H    0.999 --    93 C    0.968
   104   1 H    1.000 --    94 C    0.969
   105   1 H    0.998 --    95 C    0.967
   106   1 H    0.998 --    96 C    0.968
   107   6 C    3.954 --   117 C    0.996   108 S    0.972   134 H    0.949
                           135 H    0.946
   108  16 S    3.099 --   116 C    0.996   107 C    0.972   109 C    0.969
   109   6 C    3.967 --   110 C    1.006   108 S    0.969   137 H    0.961
                           136 H    0.910
   110   6 C    3.981 --   109 C    1.006   111 C    0.985   138 H    0.968
                           139 H    0.962
   111   6 C    3.854 --   110 C    0.985   140 H    0.959   115 N    0.913
                           112 C    0.865
   112   6 C    3.958 --   114 O    1.548   113 O    1.520   111 C    0.865
   113   8 O    1.868 --   112 C    1.520   114 O    0.257
   114   8 O    1.891 --   112 C    1.548   113 O    0.257
   115   7 N    3.635 --   111 C    0.913   142 H    0.907   141 H    0.892
                           143 H    0.833
   116   6 C    3.892 --   108 S    0.996   145 H    0.960   144 H    0.951
                           146 H    0.924
   117   6 C    3.943 --   107 C    0.996   121 C    0.964   118 O    0.956
                           147 H    0.951
   118   8 O    2.069 --   117 C    0.956   119 C    0.945
   119   6 C    3.941 --   124 N    0.987   120 C    0.959   148 H    0.952
                           118 O    0.945
   120   6 C    3.954 --   123 O    1.006   119 C    0.959   121 C    0.953
                           149 H    0.953
   121   6 C    3.952 --   122 O    1.007   117 C    0.964   120 C    0.953
                           150 H    0.950
   122   8 O    1.980 --   121 C    1.007   151 H    0.895
   123   8 O    1.977 --   120 C    1.006   152 H    0.891
   124   7 N    3.589 --   125 C    1.188   133 C    1.155   119 C    0.987
                           126 N    0.100
   125   6 C    3.951 --   126 N    1.601   124 N    1.188   153 H    0.958
   126   7 N    3.029 --   125 C    1.601   127 C    1.224   124 N    0.100
   127   6 C    3.975 --   133 C    1.266   128 C    1.228   126 N    1.224
   128   6 C    3.972 --   130 N    1.350   129 N    1.239   127 C    1.228
   129   7 N    3.357 --   128 C    1.239   154 H    0.950   155 H    0.913
   130   7 N    3.062 --   131 C    1.393   128 C    1.350
   131   6 C    3.964 --   132 N    1.457   130 N    1.393   156 H    0.954
   132   7 N    3.041 --   131 C    1.457   133 C    1.317
   133   6 C    3.957 --   132 N    1.317   127 C    1.266   124 N    1.155
   134   1 H    0.991 --   107 C    0.949
   135   1 H    0.979 --   107 C    0.946
   136   1 H    0.988 --   109 C    0.910
   137   1 H    0.994 --   109 C    0.961
   138   1 H    0.994 --   110 C    0.968
   139   1 H    0.990 --   110 C    0.962
   140   1 H    0.991 --   111 C    0.959
   141   1 H    0.933 --   115 N    0.892
   142   1 H    0.928 --   115 N    0.907
   143   1 H    0.920 --   115 N    0.833
   144   1 H    0.977 --   116 C    0.951
   145   1 H    0.987 --   116 C    0.960
   146   1 H    0.971 --   116 C    0.924
   147   1 H    0.998 --   117 C    0.951
   148   1 H    0.998 --   119 C    0.952
   149   1 H    0.993 --   120 C    0.953
   150   1 H    0.990 --   121 C    0.950
   151   1 H    0.915 --   122 O    0.895
   152   1 H    0.913 --   123 O    0.891
   153   1 H    0.994 --   125 C    0.958
   154   1 H    0.963 --   129 N    0.950
   155   1 H    0.952 --   129 N    0.913
   156   1 H    0.996 --   131 C    0.954
   157   6 C    3.919 --   159 O    1.525   158 O    1.490   160 C    0.888
   158   8 O    1.819 --   157 C    1.490   159 O    0.224
   159   8 O    1.806 --   157 C    1.525   158 O    0.224
   160   6 C    3.884 --   163 H    0.980   162 H    0.980   161 H    0.970
                           157 C    0.888
   161   1 H    0.996 --   160 C    0.970
   162   1 H    0.996 --   160 C    0.980
   163   1 H    0.994 --   160 C    0.980
   164   6 C    3.960 --   165 O    1.635     1 N    1.249   166 C    1.031
   165   8 O    1.944 --   164 C    1.635     1 N    0.190
   166   6 C    3.996 --   164 C    1.031   169 H    0.980   168 H    0.964
                           167 H    0.950
   167   1 H    0.992 --   166 C    0.950
   168   1 H    0.995 --   166 C    0.964
   169   1 H    0.999 --   166 C    0.980
   170   6 C    3.960 --   171 O    1.644    21 N    1.241   172 C    1.031
   171   8 O    1.955 --   170 C    1.644    21 N    0.190
   172   6 C    3.994 --   170 C    1.031   174 H    0.975   175 H    0.967
                           173 H    0.950
   173   1 H    0.995 --   172 C    0.950
   174   1 H    0.998 --   172 C    0.975
   175   1 H    0.992 --   172 C    0.967
   176   6 C    3.959 --   177 O    1.626    31 N    1.263   178 C    1.030
   177   8 O    1.933 --   176 C    1.626    31 N    0.191
   178   6 C    3.995 --   176 C    1.030   179 H    0.974   181 H    0.971
                           180 H    0.950
   179   1 H    0.998 --   178 C    0.974
   180   1 H    0.995 --   178 C    0.950
   181   1 H    0.994 --   178 C    0.971
   182   6 C    3.959 --   183 O    1.612    55 N    1.264   184 C    1.032
   183   8 O    1.920 --   182 C    1.612    55 N    0.190
   184   6 C    3.995 --   182 C    1.032   186 H    0.975   187 H    0.967
                           185 H    0.948
   185   1 H    0.993 --   184 C    0.948
   186   1 H    0.998 --   184 C    0.975
   187   1 H    0.993 --   184 C    0.967
   188   6 C    3.960 --   189 O    1.630    87 N    1.262   190 C    1.026
   189   8 O    1.941 --   188 C    1.630    87 N    0.194
   190   6 C    3.997 --   188 C    1.026   192 H    0.979   191 H    0.960
                           193 H    0.959
   191   1 H    0.995 --   190 C    0.960
   192   1 H    0.999 --   190 C    0.979
   193   1 H    0.994 --   190 C    0.959
   194   7 N    3.456 --     3 C    1.272   196 C    1.014   195 H    0.932
                             4 O    0.190
   195   1 H    0.972 --   194 N    0.932
   196   6 C    3.970 --   194 N    1.014   199 H    0.986   197 H    0.972
                           198 H    0.972
   197   1 H    0.997 --   196 C    0.972
   198   1 H    0.995 --   196 C    0.972
   199   1 H    0.998 --   196 C    0.986
   200   7 N    3.480 --    23 C    1.292   202 C    1.014   201 H    0.936
                            24 O    0.198
   201   1 H    0.970 --   200 N    0.936
   202   6 C    3.961 --   200 N    1.014   203 H    0.977   204 H    0.971
                           205 H    0.969
   203   1 H    0.997 --   202 C    0.977
   204   1 H    0.992 --   202 C    0.971
   205   1 H    0.996 --   202 C    0.969
   206   7 N    3.499 --    43 C    1.312   208 C    1.017   207 H    0.909
                            44 O    0.211
   207   1 H    0.959 --   206 N    0.909
   208   6 C    3.966 --   206 N    1.017   211 H    0.982   209 H    0.973
                           210 H    0.968
   209   1 H    0.995 --   208 C    0.973
   210   1 H    0.996 --   208 C    0.968
   211   1 H    0.997 --   208 C    0.982
   212   7 N    3.464 --    78 C    1.270   214 C    1.013   213 H    0.941
                            79 O    0.203
   213   1 H    0.974 --   212 N    0.941
   214   6 C    3.963 --   212 N    1.013   217 H    0.983   216 H    0.971
                           215 H    0.970
   215   1 H    0.997 --   214 C    0.970
   216   1 H    0.992 --   214 C    0.971
   217   1 H    0.998 --   214 C    0.983
   218   7 N    3.459 --    89 C    1.270   220 C    1.014   219 H    0.938
                            90 O    0.198
   219   1 H    0.970 --   218 N    0.938
   220   6 C    3.968 --   218 N    1.014   221 H    0.985   222 H    0.973
                           223 H    0.971
   221   1 H    0.998 --   220 C    0.985
   222   1 H    0.995 --   220 C    0.973
   223   1 H    0.996 --   220 C    0.971
 ---------------------------------------------------------------------------

Topologies differ in bond orders
Writing corrected topology to xtbtopo.mol

molecular dipole:
                 x           y           z       tot (Debye)
 q only:      -78.397    -182.766    -228.277
   full:      -79.283    -183.636    -229.099     773.017
molecular quadrupole (traceless):
                xx          xy          yy          xz          yz          zz
 q only:    36601.142  -21499.117   -4354.151  -26645.333  -62468.552  -32246.991
  q+dip:    36794.194  -21802.803   -4418.192  -27003.298  -62955.369  -32376.002
   full:    36792.792  -21798.713   -4417.697  -27002.319  -62951.877  -32375.095


           -------------------------------------------------
          | TOTAL ENERGY             -368.737228893788 Eh   |
          | GRADIENT NORM               0.430417471470 Eh/α |
          | HOMO-LUMO GAP               0.373940026556 eV   |
           -------------------------------------------------

------------------------------------------------------------------------
 * finished run on 2024/06/10 at 11:51:05.082     
------------------------------------------------------------------------
 total:
 * wall-time:     0 d,  0 h,  0 min,  6.147 sec
 *  cpu-time:     0 d,  0 h,  0 min,  6.108 sec
 * ratio c/w:     0.994 speedup
 SCF:
 * wall-time:     0 d,  0 h,  0 min,  5.862 sec
 *  cpu-time:     0 d,  0 h,  0 min,  5.848 sec
 * ratio c/w:     0.998 speedup

