      -----------------------------------------------------------      
     |                   =====================                   |     
     |                           x T B                           |     
     |                   =====================                   |     
     |                         S. Grimme                         |     
     |          Mulliken Center for Theoretical Chemistry        |     
     |                    University of Bonn                     |     
      -----------------------------------------------------------      

   * xtb version 6.6.1 (8d0f1dd) compiled by 'stahn@M-Bot' on 2023-08-01

   xtb is free software: you can redistribute it and/or modify it under
   the terms of the GNU Lesser General Public License as published by
   the Free Software Foundation, either version 3 of the License, or
   (at your option) any later version.
   
   xtb is distributed in the hope that it will be useful,
   but WITHOUT ANY WARRANTY; without even the implied warranty of
   MERCHANTABILITY or FITNESS FOR A PARTICULAR PURPOSE.  See the
   GNU Lesser General Public License for more details.
   
   Cite this work as:
   * C. Bannwarth, E. Caldeweyher, S. Ehlert, A. Hansen, P. Pracht,
     J. Seibert, S. Spicher, S. Grimme, WIREs Comput. Mol. Sci., 2020, 11,
     e01493. DOI: 10.1002/wcms.1493
   
   for GFN2-xTB:
   * C. Bannwarth, S. Ehlert and S. Grimme., J. Chem. Theory Comput., 2019,
     15, 1652-1671. DOI: 10.1021/acs.jctc.8b01176
   for GFN1-xTB:
   * S. Grimme, C. Bannwarth, P. Shushkov, J. Chem. Theory Comput., 2017,
     13, 1989-2009. DOI: 10.1021/acs.jctc.7b00118
   for GFN0-xTB:
   * P. Pracht, E. Caldeweyher, S. Ehlert, S. Grimme, ChemRxiv, 2019, preprint.
     DOI: 10.26434/chemrxiv.8326202.v1
   for GFN-FF:
   * S. Spicher and S. Grimme, Angew. Chem. Int. Ed., 2020, 59, 15665-15673.
     DOI: 10.1002/anie.202004239
   
   for ALPB and GBSA implicit solvation:
   * S. Ehlert, M. Stahn, S. Spicher, S. Grimme, J. Chem. Theory Comput.,
     2021, 17, 4250-4261. DOI: 10.1021/acs.jctc.1c00471
   
   for DFT-D4:
   * E. Caldeweyher, C. Bannwarth and S. Grimme, J. Chem. Phys., 2017,
     147, 034112. DOI: 10.1063/1.4993215
   * E. Caldeweyher, S. Ehlert, A. Hansen, H. Neugebauer, S. Spicher,
     C. Bannwarth and S. Grimme, J. Chem. Phys., 2019, 150, 154122.
     DOI: 10.1063/1.5090222
   * E. Caldeweyher, J.-M. Mewes, S. Ehlert and S. Grimme, Phys. Chem. Chem. Phys.
     2020, 22, 8499-8512. DOI: 10.1039/D0CP00502A
   
   for sTDA-xTB:
   * S. Grimme and C. Bannwarth, J. Chem. Phys., 2016, 145, 054103.
     DOI: 10.1063/1.4959605
   
   in the mass-spec context:
   * V. Asgeirsson, C. Bauer and S. Grimme, Chem. Sci., 2017, 8, 4879.
     DOI: 10.1039/c7sc00601b
   * J. Koopman and S. Grimme, ACS Omega 2019, 4, 12, 15120-15133.
     DOI: 10.1021/acsomega.9b02011
   
   for metadynamics refer to:
   * S. Grimme, J. Chem. Theory Comput., 2019, 155, 2847-2862
     DOI: 10.1021/acs.jctc.9b00143
   
   for SPH calculations refer to:
   * S. Spicher and S. Grimme, J. Chem. Theory Comput., 2021, 17, 1701-1714
     DOI: 10.1021/acs.jctc.0c01306
   
   with help from (in alphabetical order)
   P. Atkinson, C. Bannwarth, F. Bohle, G. Brandenburg, E. Caldeweyher
   M. Checinski, S. Dohm, S. Ehlert, S. Ehrlich, I. Gerasimov, C. Hölzer
   A. Katbashev, J. Koopman, C. Lavigne, S. Lehtola, F. März, M. Müller,
   F. Musil, H. Neugebauer, J. Pisarek, C. Plett, P. Pracht, F. Pultar,
   J. Seibert, P. Shushkov, S. Spicher, M. Stahn, M. Steiner, T. Strunk,
   J. Stückrath, T. Rose, and J. Unsleber
   
 * started run on 2024/03/04 at 03:17:39.195     

           -------------------------------------------------
          |                Calculation Setup                |
           -------------------------------------------------

          program call               : /home/jurichc/xtb-6.6.1/bin/xtb --chrg -2 --iterations 1000 --parallel 1 --norestart --sp /panfs/accrepfs.vampire/data/yang_lab/jurichc/enzy_rcd_benchmarking/enzy_rcd_no_qm/1nbh/QM_SPE/xtb_coords.mol
          hostname                   : cn1430
          coordinate file            : /panfs/accrepfs.vampire/data/yang_lab/jurichc/enzy_rcd_benchmarking/enzy_rcd_no_qm/1nbh/QM_SPE/xtb_coords.mol
          omp threads                :                     1

   ID    Z sym.   atoms
    1    7 N      1, 21, 31, 43, 50, 57, 64, 71, 78, 89, 117, 126, 128, 131,
                  132, 134, 202, 208, 214, 220, 226, 232
    2    6 C      2, 3, 5-11, 22, 23, 25, 32, 33, 35, 36, 44, 45, 47, 48, 58,
                  59, 65, 66, 68, 69, 79, 80, 82, 90, 91, 93-99, 109,
                  111-114, 118, 119, 121-123, 127, 129, 130, 133, 135, 159,
                  162, 166, 168, 172, 174, 178, 180, 184, 186, 190, 192, 196,
                  198, 204, 210, 216, 222, 228, 234
    3    8 O      4, 12, 24, 34, 37, 38, 46, 49, 60, 67, 70, 81, 83, 92, 100,
                  115, 116, 120, 124, 125, 160, 161, 167, 173, 179, 185, 191,
                  197
    4    1 H      13-20, 26-30, 39-42, 51-56, 61-63, 72-77, 84-88, 101-108,
                  136-158, 163-165, 169-171, 175-177, 181-183, 187-189,
                  193-195, 199-201, 203, 205-207, 209, 211-213, 215, 217-219,
                  221, 223-225, 227, 229-231, 233, 235-237
    5   16 S      110

molecular fragmentation (1/2 indicates fragments):
111111111111111111112222222222222222222222222222222222222222222222222222
222222222222222222222222222222222222222222222222222222222222222222222222
222222222222222222222111111222222222222222222222222222222111111222222222
222222222222222222222
# atoms in fragment 1/2:    32   205
 fragment masses (1/2) :      235.26     1543.62
CMA distance (Bohr)    :  17.173
constraining FC (au)   :  0.0500
########################################################################
[WARNING] Please study the warnings concerning your input carefully
-1- prog_main: Charge in sdf/mol input was overwritten
########################################################################

           -------------------------------------------------
          |                 G F N 2 - x T B                 |
           -------------------------------------------------

        Reference                      10.1021/acs.jctc.8b01176
      * Hamiltonian:
        H0-scaling (s, p, d)           1.850000    2.230000    2.230000
        zeta-weighting                 0.500000
      * Dispersion:
        s8                             2.700000
        a1                             0.520000
        a2                             5.000000
        s9                             5.000000
      * Repulsion:
        kExp                           1.500000    1.000000
        rExp                           1.000000
      * Coulomb:
        alpha                          2.000000
        third order                    shell-resolved
        anisotropic                    true
        a3                             3.000000
        a5                             4.000000
        cn-shift                       1.200000
        cn-exp                         4.000000
        max-rad                        5.000000


          ...................................................
          :                      SETUP                      :
          :.................................................:
          :  # basis functions                 615          :
          :  # atomic orbitals                 614          :
          :  # shells                          362          :
          :  # electrons                       691          :
          :  max. iterations                  1000          :
          :  Hamiltonian                  GFN2-xTB          :
          :  restarted?                      false          :
          :  GBSA solvation                  false          :
          :  PC potential                    false          :
          :  electronic temp.          300.0000000     K    :
          :  accuracy                    1.0000000          :
          :  -> integral cutoff          0.2500000E+02      :
          :  -> integral neglect         0.1000000E-07      :
          :  -> SCF convergence          0.1000000E-05 Eh   :
          :  -> wf. convergence          0.1000000E-03 e    :
          :  Broyden damping             0.4000000          :
          ...................................................

 iter      E             dE          RMSdq      gap      omega  full diag
   1   -398.5281903 -0.398528E+03  0.460E+00    2.94       0.0  T
   2   -397.0813274  0.144686E+01  0.325E+00    0.11       1.0  T
   3   -390.5650037  0.651632E+01  0.333E+00    0.05       1.0  T
   4   -389.4758522  0.108915E+01  0.363E+00    0.14       1.0  T
   5   -400.1192347 -0.106434E+02  0.162E+00    1.27       1.0  T
   6   -400.1527202 -0.334855E-01  0.103E+00    2.24       1.0  T
   7   -400.2179697 -0.652496E-01  0.915E-01    0.88       1.0  T
   8   -400.3023200 -0.843503E-01  0.747E-01    0.90       1.0  T
   9   -400.4070855 -0.104765E+00  0.512E-01    0.50       1.0  T
  10   -400.4415952 -0.345097E-01  0.335E-01    1.12       1.0  T
  11   -400.4162936  0.253016E-01  0.379E-01    0.70       1.0  T
  12   -400.3204459  0.958477E-01  0.633E-01    0.81       1.0  T
  13   -400.3161494  0.429649E-02  0.521E-01    0.80       1.0  T
  14   -400.4441571 -0.128008E+00  0.210E-01    0.91       1.0  T
  15   -400.4270474  0.171097E-01  0.293E-01    0.75       1.0  T
  16   -400.4513495 -0.243020E-01  0.175E-01    0.80       1.0  T
  17   -400.4496312  0.171829E-02  0.179E-01    0.75       1.0  T
  18   -400.4497455 -0.114283E-03  0.158E-01    0.76       1.0  T
  19   -400.4561173 -0.637188E-02  0.115E-01    0.77       1.0  T
  20   -400.4629531 -0.683575E-02  0.416E-02    0.77       1.0  T
  21   -400.4627899  0.163171E-03  0.404E-02    0.77       1.0  T
  22   -400.4633757 -0.585771E-03  0.255E-02    0.76       1.0  T
  23   -400.4619697  0.140596E-02  0.528E-02    0.74       1.0  T
  24   -400.4632437 -0.127401E-02  0.251E-02    0.71       1.0  T
  25   -400.4633490 -0.105258E-03  0.192E-02    0.71       1.0  T
  26   -400.4634710 -0.122022E-03  0.675E-03    0.69       1.0  T
  27   -400.4634482  0.228609E-04  0.980E-03    0.69       1.0  T
  28   -400.4634740 -0.258075E-04  0.699E-03    0.68       1.0  T
  29   -400.4634686  0.532937E-05  0.722E-03    0.68       1.0  T
  30   -400.4634928 -0.242051E-04  0.261E-03    0.68       2.5  T
  31   -400.4634942 -0.137865E-05  0.224E-03    0.67       2.9  T
  32   -400.4634956 -0.138585E-05  0.139E-03    0.67       4.7  T
  33   -400.4634962 -0.607936E-06  0.555E-04    0.67      11.7  T
  34   -400.4634962  0.387729E-09  0.515E-04    0.67      12.6  T

   *** convergence criteria satisfied after 34 iterations ***

         #    Occupation            Energy/Eh            Energy/eV
      -------------------------------------------------------------
         1        2.0000           -0.6446185             -17.5410
       ...           ...                  ...                  ...
       340        2.0000           -0.2020257              -5.4974
       341        1.9969           -0.1764339              -4.8010
       342        1.9909           -0.1753968              -4.7728
       343        1.9813           -0.1747069              -4.7540
       344        1.8090           -0.1723134              -4.6889
       345        1.7790           -0.1721392              -4.6841
       346        1.4428           -0.1707237              -4.6456 (HOMO)
       347        0.0000           -0.1460142              -3.9732 (LUMO)
       348        0.0000           -0.1432901              -3.8991
       349                         -0.1198018              -3.2600
       350                         -0.1184442              -3.2230
       351                         -0.1157981              -3.1510
       ...                                ...                  ...
       614                          0.9090300              24.7360
      -------------------------------------------------------------
                  HL-Gap            0.0247095 Eh            0.6724 eV
             Fermi-level           -0.1645823 Eh           -4.4785 eV

 SCC (total)                   0 d,  0 h,  0 min,  7.719 sec
 SCC setup                      ...        0 min,  0.014 sec (  0.184%)
 Dispersion                     ...        0 min,  0.036 sec (  0.468%)
 classical contributions        ...        0 min,  0.006 sec (  0.078%)
 integral evaluation            ...        0 min,  0.181 sec (  2.348%)
 iterations                     ...        0 min,  6.368 sec ( 82.495%)
 molecular gradient             ...        0 min,  0.971 sec ( 12.576%)
 printout                       ...        0 min,  0.143 sec (  1.849%)

         :::::::::::::::::::::::::::::::::::::::::::::::::::::
         ::                     SUMMARY                     ::
         :::::::::::::::::::::::::::::::::::::::::::::::::::::
         :: total energy            -395.811736391522 Eh    ::
         :: gradient norm              0.440615653173 Eh/a0 ::
         :: HOMO-LUMO gap              0.672380649001 eV    ::
         ::.................................................::
         :: SCC energy              -400.463496209271 Eh    ::
         :: -> isotropic ES            1.417952591412 Eh    ::
         :: -> anisotropic ES          0.011483908687 Eh    ::
         :: -> anisotropic XC          0.088288567226 Eh    ::
         :: -> dispersion             -0.279183551370 Eh    ::
         :: repulsion energy           4.635772301227 Eh    ::
         :: add. restraining           0.000000000000 Eh    ::
         :: total charge              -1.999999999996 e     ::
         :::::::::::::::::::::::::::::::::::::::::::::::::::::

           -------------------------------------------------
          |                Property Printout                |
           -------------------------------------------------

    * Orbital Energies and Occupations

         #    Occupation            Energy/Eh            Energy/eV
      -------------------------------------------------------------
         1        2.0000           -0.6446185             -17.5410
       ...           ...                  ...                  ...
       334        2.0000           -0.2325955              -6.3292
       335        2.0000           -0.2270514              -6.1784
       336        2.0000           -0.2262237              -6.1559
       337        2.0000           -0.2162960              -5.8857
       338        2.0000           -0.2110698              -5.7435
       339        2.0000           -0.2094122              -5.6984
       340        2.0000           -0.2020257              -5.4974
       341        1.9969           -0.1764339              -4.8010
       342        1.9909           -0.1753968              -4.7728
       343        1.9813           -0.1747069              -4.7540
       344        1.8090           -0.1723134              -4.6889
       345        1.7790           -0.1721392              -4.6841
       346        1.4428           -0.1707237              -4.6456 (HOMO)
       347        0.0000           -0.1460142              -3.9732 (LUMO)
       348        0.0000           -0.1432901              -3.8991
       349                         -0.1198018              -3.2600
       350                         -0.1184442              -3.2230
       351                         -0.1157981              -3.1510
       352                         -0.1126283              -3.0648
       353                         -0.1111370              -3.0242
       354                         -0.1063927              -2.8951
       355                         -0.1050183              -2.8577
       356                         -0.1038867              -2.8269
       357                         -0.0985583              -2.6819
       ...                                ...                  ...
       614                          0.9090300              24.7360
      -------------------------------------------------------------
                  HL-Gap            0.0247095 Eh            0.6724 eV
             Fermi-level           -0.1645823 Eh           -4.4785 eV

     #   Z          covCN         q      C6AA      α(0)
     1   7 N        2.701    -0.183    24.974     7.422
     2   6 C        3.802     0.016    20.303     6.415
     3   6 C        2.770     0.260    22.626     7.790
     4   8 O        0.859    -0.454    22.798     6.402
     5   6 C        3.812    -0.065    21.735     6.636
     6   6 C        2.967    -0.018    28.466     8.752
     7   6 C        2.929    -0.045    29.121     8.850
     8   6 C        2.929    -0.045    29.113     8.849
     9   6 C        2.918    -0.068    29.697     8.936
    10   6 C        2.919    -0.059    29.472     8.902
    11   6 C        2.853     0.161    24.526     8.117
    12   8 O        0.854    -0.618    26.570     6.911
    13   1 H        0.860     0.168     1.284     1.775
    14   1 H        0.924     0.102     1.769     2.080
    15   1 H        0.924     0.033     2.540     2.493
    16   1 H        0.925     0.063     2.162     2.300
    17   1 H        0.925    -0.007     3.174     2.786
    18   1 H        0.924     0.006     2.952     2.687
    19   1 H        0.925     0.006     2.949     2.685
    20   1 H        0.925     0.026     2.651     2.546
    21   7 N        2.705    -0.186    25.029     7.430
    22   6 C        3.799     0.016    20.308     6.416
    23   6 C        2.769     0.262    22.584     7.783
    24   8 O        0.859    -0.489    23.548     6.506
    25   6 C        3.760    -0.111    22.678     6.789
    26   1 H        0.860     0.157     1.355     1.823
    27   1 H        0.925     0.108     1.712     2.046
    28   1 H        0.925     0.061     2.188     2.313
    29   1 H        0.925     0.054     2.272     2.357
    30   1 H        0.925     0.044     2.401     2.423
    31   7 N        2.711    -0.169    24.664     7.376
    32   6 C        3.798     0.032    20.032     6.373
    33   6 C        2.778     0.275    22.346     7.742
    34   8 O        0.859    -0.491    23.580     6.511
    35   6 C        3.807    -0.092    22.258     6.716
    36   6 C        2.688     0.387    20.455     7.402
    37   8 O        0.859    -0.597    26.051     6.843
    38   8 O        0.859    -0.585    25.759     6.805
    39   1 H        0.860     0.183     1.198     1.715
    40   1 H        0.925     0.064     2.149     2.292
    41   1 H        0.925     0.042     2.421     2.433
    42   1 H        0.925     0.022     2.706     2.573
    43   7 N        2.704    -0.176    24.813     7.398
    44   6 C        3.804     0.022    20.202     6.399
    45   6 C        2.768     0.267    22.496     7.768
    46   8 O        0.859    -0.467    23.073     6.440
    47   6 C        3.816    -0.089    22.175     6.702
    48   6 C        2.746     0.284    22.181     7.712
    49   8 O        0.860    -0.459    22.904     6.417
    50   7 N        2.642    -0.248    26.457     7.639
    51   1 H        0.860     0.176     1.237     1.742
    52   1 H        0.924     0.090     1.881     2.145
    53   1 H        0.924     0.046     2.376     2.410
    54   1 H        0.925     0.075     2.026     2.226
    55   1 H        0.861     0.204     1.085     1.631
    56   1 H        0.861     0.192     1.145     1.676
    57   7 N        2.702    -0.176    24.810     7.398
    58   6 C        3.746    -0.037    21.300     6.583
    59   6 C        2.753     0.265    22.533     7.773
    60   8 O        0.859    -0.402    21.717     6.248
    61   1 H        0.860     0.158     1.347     1.818
    62   1 H        0.924     0.082     1.958     2.188
    63   1 H        0.925     0.134     1.508     1.920
    64   7 N        2.690    -0.183    24.969     7.421
    65   6 C        3.802     0.035    19.993     6.366
    66   6 C        2.758     0.275    22.349     7.742
    67   8 O        0.858    -0.406    21.803     6.260
    68   6 C        3.815    -0.091    22.225     6.710
    69   6 C        2.746     0.285    22.168     7.709
    70   8 O        0.860    -0.519    24.215     6.598
    71   7 N        2.642    -0.249    26.477     7.642
    72   1 H        0.860     0.155     1.368     1.832
    73   1 H        0.924     0.061     2.186     2.312
    74   1 H        0.924     0.055     2.263     2.353
    75   1 H        0.925     0.104     1.748     2.068
    76   1 H        0.861     0.189     1.165     1.691
    77   1 H        0.861     0.258     0.852     1.446
    78   7 N        2.690    -0.186    25.025     7.430
    79   6 C        3.799     0.006    20.472     6.442
    80   6 C        2.771     0.272    22.399     7.751
    81   8 O        0.859    -0.422    22.131     6.307
    82   6 C        3.685     0.081    19.429     6.311
    83   8 O        1.657    -0.464    22.132     6.351
    84   1 H        0.860     0.157     1.352     1.821
    85   1 H        0.924     0.095     1.827     2.114
    86   1 H        0.925     0.022     2.700     2.569
    87   1 H        0.925     0.036     2.504     2.475
    88   1 H        0.806     0.331     0.633     1.250
    89   7 N        2.708    -0.173    24.740     7.387
    90   6 C        3.802     0.023    20.190     6.397
    91   6 C        2.767     0.257    22.680     7.799
    92   8 O        0.859    -0.446    22.611     6.375
    93   6 C        3.811    -0.063    21.705     6.631
    94   6 C        2.967    -0.005    28.143     8.702
    95   6 C        2.929    -0.042    29.042     8.838
    96   6 C        2.929    -0.038    28.945     8.823
    97   6 C        2.918    -0.044    29.083     8.843
    98   6 C        2.919    -0.042    29.045     8.838
    99   6 C        2.852     0.177    24.202     8.063
   100   8 O        0.854    -0.529    24.433     6.627
   101   1 H        0.860     0.170     1.271     1.766
   102   1 H        0.924     0.062     2.179     2.308
   103   1 H        0.924     0.057     2.240     2.340
   104   1 H        0.925     0.033     2.546     2.495
   105   1 H        0.925     0.016     2.802     2.618
   106   1 H        0.925     0.009     2.906     2.666
   107   1 H        0.925     0.055     2.257     2.349
   108   1 H        0.925     0.056     2.252     2.347
   109   6 C        3.794    -0.092    22.257     6.718
   110  16 S        2.971     0.429   124.771    18.800
   111   6 C        3.793    -0.100    22.416     6.742
   112   6 C        3.840    -0.082    22.029     6.677
   113   6 C        3.776    -0.012    20.811     6.500
   114   6 C        2.685     0.354    20.994     7.498
   115   8 O        0.857    -0.597    26.053     6.843
   116   8 O        0.856    -0.500    23.782     6.538
   117   7 N        3.481    -0.159    24.424     7.340
   118   6 C        3.742    -0.139    23.249     6.879
   119   6 C        3.802     0.097    18.978     6.202
   120   8 O        1.696    -0.352    19.920     6.026
   121   6 C        3.717     0.162    18.096     6.077
   122   6 C        3.750     0.084    19.246     6.257
   123   6 C        3.733     0.085    19.255     6.263
   124   8 O        1.652    -0.473    22.316     6.377
   125   8 O        1.655    -0.466    22.180     6.358
   126   7 N        2.852    -0.041    22.029     6.971
   127   6 C        3.099     0.111    25.432     8.264
   128   7 N        1.888    -0.286    28.274     7.883
   129   6 C        3.194     0.021    27.020     8.476
   130   6 C        2.868     0.159    24.553     8.123
   131   7 N        2.638    -0.284    27.329     7.764
   132   7 N        1.836    -0.323    29.213     8.010
   133   6 C        2.911     0.138    24.993     8.198
   134   7 N        1.826    -0.284    28.206     7.870
   135   6 C        3.122     0.139    24.812     8.158
   136   1 H        0.924     0.085     1.926     2.170
   137   1 H        0.924     0.111     1.688     2.032
   138   1 H        0.924     0.139     1.471     1.897
   139   1 H        0.924     0.053     2.280     2.361
   140   1 H        0.924     0.102     1.763     2.076
   141   1 H        0.923     0.061     2.189     2.314
   142   1 H        0.924     0.068     2.111     2.272
   143   1 H        0.859     0.262     0.840     1.435
   144   1 H        0.857     0.290     0.743     1.350
   145   1 H        0.860     0.259     0.848     1.443
   146   1 H        0.924     0.144     1.431     1.871
   147   1 H        0.924     0.111     1.689     2.032
   148   1 H        0.924     0.125     1.575     1.962
   149   1 H        0.924     0.041     2.434     2.440
   150   1 H        0.923     0.062     2.174     2.306
   151   1 H        0.923     0.087     1.909     2.161
   152   1 H        0.924     0.078     2.005     2.214
   153   1 H        0.803     0.336     0.622     1.239
   154   1 H        0.804     0.347     0.595     1.212
   155   1 H        0.925     0.069     2.101     2.267
   156   1 H        0.860     0.213     1.040     1.598
   157   1 H        0.860     0.178     1.224     1.733
   158   1 H        0.925     0.057     2.239     2.340
   159   6 C        2.687     0.390    20.410     7.394
   160   8 O        0.860    -0.573    25.459     6.765
   161   8 O        0.860    -0.529    24.433     6.627
   162   6 C        3.752    -0.129    23.030     6.844
   163   1 H        0.925     0.030     2.586     2.515
   164   1 H        0.924     0.050     2.315     2.379
   165   1 H        0.925     0.038     2.474     2.460
   166   6 C        2.759     0.282    22.230     7.721
   167   8 O        0.864    -0.477    23.276     6.469
   168   6 C        3.775    -0.132    23.054     6.841
   169   1 H        0.924     0.087     1.912     2.162
   170   1 H        0.925     0.066     2.128     2.281
   171   1 H        0.924     0.033     2.542     2.494
   172   6 C        2.755     0.283    22.209     7.717
   173   8 O        0.863    -0.457    22.842     6.408
   174   6 C        3.776    -0.132    23.065     6.843
   175   1 H        0.924     0.077     2.006     2.215
   176   1 H        0.924     0.033     2.548     2.496
   177   1 H        0.924     0.073     2.056     2.242
   178   6 C        2.756     0.280    22.255     7.725
   179   8 O        0.862    -0.500    23.791     6.540
   180   6 C        3.778    -0.129    23.000     6.832
   181   1 H        0.924     0.047     2.352     2.398
   182   1 H        0.924     0.059     2.211     2.326
   183   1 H        0.925     0.051     2.303     2.373
   184   6 C        2.758     0.279    22.280     7.730
   185   8 O        0.862    -0.465    23.021     6.433
   186   6 C        3.776    -0.134    23.098     6.848
   187   1 H        0.924     0.087     1.904     2.158
   188   1 H        0.924     0.079     1.995     2.209
   189   1 H        0.924     0.034     2.529     2.487
   190   6 C        2.756     0.283    22.204     7.716
   191   8 O        0.863    -0.476    23.249     6.465
   192   6 C        3.780    -0.136    23.133     6.852
   193   1 H        0.925     0.077     2.007     2.216
   194   1 H        0.924     0.035     2.518     2.482
   195   1 H        0.924     0.069     2.094     2.263
   196   6 C        2.759     0.284    22.195     7.715
   197   8 O        0.863    -0.465    23.029     6.434
   198   6 C        3.778    -0.133    23.076     6.844
   199   1 H        0.924     0.064     2.150     2.293
   200   1 H        0.924     0.035     2.517     2.481
   201   1 H        0.925     0.090     1.882     2.146
   202   7 N        2.688    -0.161    24.485     7.349
   203   1 H        0.860     0.167     1.290     1.779
   204   6 C        3.705    -0.030    21.268     6.593
   205   1 H        0.925     0.059     2.211     2.326
   206   1 H        0.924     0.064     2.156     2.296
   207   1 H        0.925     0.039     2.461     2.453
   208   7 N        2.686    -0.142    24.068     7.286
   209   1 H        0.860     0.207     1.070     1.620
   210   6 C        3.700    -0.038    21.420     6.619
   211   1 H        0.925     0.039     2.463     2.454
   212   1 H        0.924     0.075     2.034     2.231
   213   1 H        0.925     0.071     2.073     2.252
   214   7 N        2.686    -0.124    23.699     7.230
   215   1 H        0.860     0.202     1.094     1.638
   216   6 C        3.709    -0.035    21.336     6.602
   217   1 H        0.925     0.078     1.997     2.210
   218   1 H        0.925     0.045     2.390     2.417
   219   1 H        0.924     0.037     2.483     2.464
   220   7 N        2.687    -0.142    24.075     7.287
   221   1 H        0.860     0.207     1.071     1.621
   222   6 C        3.702    -0.039    21.432     6.620
   223   1 H        0.925     0.069     2.094     2.263
   224   1 H        0.925     0.061     2.182     2.310
   225   1 H        0.925     0.053     2.285     2.364
   226   7 N        2.687    -0.149    24.227     7.310
   227   1 H        0.860     0.161     1.330     1.807
   228   6 C        3.705    -0.038    21.397     6.613
   229   1 H        0.925     0.058     2.227     2.334
   230   1 H        0.925     0.082     1.954     2.186
   231   1 H        0.925     0.043     2.411     2.428
   232   7 N        2.687    -0.163    24.521     7.355
   233   1 H        0.860     0.173     1.255     1.755
   234   6 C        3.701    -0.032    21.301     6.600
   235   1 H        0.925     0.043     2.406     2.425
   236   1 H        0.925     0.067     2.120     2.277
   237   1 H        0.924     0.056     2.251     2.346

 Mol. C6AA /au·bohr⁶  :     578165.753237
 Mol. C8AA /au·bohr⁸  :   13083992.143482
 Mol. α(0) /au        :       1144.512311


Wiberg/Mayer (AO) data.
largest (>0.10) Wiberg bond orders for each atom

 ---------------------------------------------------------------------------
     #   Z sym  total        # sym  WBO       # sym  WBO       # sym  WBO
 ---------------------------------------------------------------------------
     1   7 N    3.454 --   166 C    1.255     2 C    0.976    13 H    0.935
                           167 O    0.191
     2   6 C    3.955 --     1 N    0.976     5 C    0.964     3 C    0.949
                            14 H    0.932
     3   6 C    3.950 --     4 O    1.654   202 N    1.268     2 C    0.949
     4   8 O    1.967 --     3 C    1.654   202 N    0.188
     5   6 C    3.985 --     6 C    1.002    15 H    0.970    16 H    0.967
                             2 C    0.964
     6   6 C    3.934 --     7 C    1.388     8 C    1.384     5 C    1.002
     7   6 C    3.988 --     9 C    1.476     6 C    1.388    17 H    0.968
     8   6 C    3.989 --    10 C    1.485     6 C    1.384    18 H    0.968
     9   6 C    3.945 --     7 C    1.476    11 C    1.291    19 H    0.969
    10   6 C    3.945 --     8 C    1.485    11 C    1.290    20 H    0.969
    11   6 C    3.966 --     9 C    1.291    10 C    1.290    12 O    1.283
    12   8 O    1.562 --    11 C    1.283
    13   1 H    0.972 --     1 N    0.935
    14   1 H    0.990 --     2 C    0.932
    15   1 H    0.997 --     5 C    0.970
    16   1 H    0.995 --     5 C    0.967
    17   1 H    1.000 --     7 C    0.968
    18   1 H    0.999 --     8 C    0.968
    19   1 H    0.999 --     9 C    0.969
    20   1 H    0.999 --    10 C    0.969
    21   7 N    3.435 --   172 C    1.243    22 C    0.972    26 H    0.942
                           173 O    0.191
    22   6 C    3.962 --    25 C    1.004    21 N    0.972    23 C    0.947
                            27 H    0.933
    23   6 C    3.956 --    24 O    1.603   208 N    1.324    22 C    0.947
    24   8 O    1.936 --    23 C    1.603   208 N    0.199
    25   6 C    3.993 --    22 C    1.004    30 H    0.985    29 H    0.984
                            28 H    0.977
    26   1 H    0.975 --    21 N    0.942
    27   1 H    0.988 --    22 C    0.933
    28   1 H    0.996 --    25 C    0.977
    29   1 H    0.997 --    25 C    0.984
    30   1 H    0.998 --    25 C    0.985
    31   7 N    3.481 --   178 C    1.304    32 C    0.973    39 H    0.925
                           179 O    0.199
    32   6 C    3.962 --    31 N    0.973    35 C    0.962    33 C    0.954
                            40 H    0.952
    33   6 C    3.955 --    34 O    1.606   214 N    1.325    32 C    0.954
    34   8 O    1.938 --    33 C    1.606   214 N    0.198
    35   6 C    3.975 --    41 H    0.973    42 H    0.970    32 C    0.962
                            36 C    0.908
    36   6 C    3.945 --    38 O    1.524    37 O    1.485    35 C    0.908
    37   8 O    1.877 --    36 C    1.485    38 O    0.223
    38   8 O    1.873 --    36 C    1.524    37 O    0.223
    39   1 H    0.966 --    31 N    0.925
    40   1 H    0.996 --    32 C    0.952
    41   1 H    0.998 --    35 C    0.973
    42   1 H    0.999 --    35 C    0.970
    43   7 N    3.443 --   184 C    1.247    44 C    0.983    51 H    0.934
                           185 O    0.190
    44   6 C    3.966 --    43 N    0.983    47 C    0.967    52 H    0.949
                            45 C    0.941
    45   6 C    3.961 --    46 O    1.634   220 N    1.315    44 C    0.941
    46   8 O    1.957 --    45 C    1.634   220 N    0.210
    47   6 C    3.996 --    48 C    0.976    53 H    0.970    44 C    0.967
                            54 H    0.952
    48   6 C    3.950 --    49 O    1.632    50 N    1.308    47 C    0.976
    49   8 O    1.971 --    48 C    1.632    50 N    0.194
    50   7 N    3.413 --    48 C    1.308    56 H    0.940    55 H    0.934
                            49 O    0.194
    51   1 H    0.969 --    43 N    0.934
    52   1 H    0.992 --    44 C    0.949
    53   1 H    0.998 --    47 C    0.970
    54   1 H    0.994 --    47 C    0.952
    55   1 H    0.958 --    50 N    0.934
    56   1 H    0.963 --    50 N    0.940
    57   7 N    3.454 --   190 C    1.259    58 C    0.988    61 H    0.943
                           191 O    0.194
    58   6 C    3.948 --    57 N    0.988    62 H    0.949    59 C    0.947
                            63 H    0.943
    59   6 C    3.957 --    60 O    1.697    64 N    1.249    58 C    0.947
    60   8 O    2.031 --    59 C    1.697    64 N    0.194
    61   1 H    0.975 --    57 N    0.943
    62   1 H    0.993 --    58 C    0.949
    63   1 H    0.982 --    58 C    0.943
    64   7 N    3.429 --    59 C    1.249    65 C    0.964    72 H    0.944
                            60 O    0.194
    65   6 C    3.962 --    68 C    0.987    64 N    0.964    73 H    0.951
                            66 C    0.934
    66   6 C    3.954 --    67 O    1.704    78 N    1.243    65 C    0.934
    67   8 O    2.018 --    66 C    1.704    78 N    0.191
    68   6 C    3.985 --    65 C    0.987    69 C    0.964    75 H    0.960
                            74 H    0.956
    69   6 C    3.957 --    70 O    1.591    71 N    1.375    68 C    0.964
    70   8 O    1.897 --    69 C    1.591    71 N    0.208
    71   7 N    3.450 --    69 C    1.375    76 H    0.941    77 H    0.864
                            70 O    0.208
    72   1 H    0.976 --    64 N    0.944
    73   1 H    0.996 --    65 C    0.951
    74   1 H    0.996 --    68 C    0.956
    75   1 H    0.989 --    68 C    0.960
    76   1 H    0.964 --    71 N    0.941
    77   1 H    0.933 --    71 N    0.864
    78   7 N    3.425 --    66 C    1.243    79 C    0.976    84 H    0.939
                            67 O    0.191
    79   6 C    3.961 --    78 N    0.976    82 C    0.967    85 H    0.943
                            80 C    0.935
    80   6 C    3.958 --    81 O    1.686   226 N    1.266    79 C    0.935
    81   8 O    2.002 --    80 C    1.686   226 N    0.199
    82   6 C    3.971 --    83 O    1.019    87 H    0.968    79 C    0.967
                            86 H    0.967
    83   8 O    1.940 --    82 C    1.019    88 H    0.831
    84   1 H    0.975 --    78 N    0.939
    85   1 H    0.991 --    79 C    0.943
    86   1 H    0.999 --    82 C    0.967
    87   1 H    0.998 --    82 C    0.968
    88   1 H    0.890 --    83 O    0.831
    89   7 N    3.447 --   196 C    1.251    90 C    0.974   101 H    0.936
                           197 O    0.192
    90   6 C    3.962 --    89 N    0.974    93 C    0.962   102 H    0.955
                            91 C    0.944
    91   6 C    3.948 --    92 O    1.668   232 N    1.264    90 C    0.944
    92   8 O    1.979 --    91 C    1.668   232 N    0.195
    93   6 C    3.986 --    94 C    1.001   103 H    0.970   104 H    0.970
                            90 C    0.962
    94   6 C    3.903 --    95 C    1.379    96 C    1.375    93 C    1.001
    95   6 C    3.989 --    97 C    1.488    94 C    1.379   105 H    0.968
    96   6 C    3.989 --    98 C    1.495    94 C    1.375   106 H    0.969
    97   6 C    3.912 --    95 C    1.488    99 C    1.270   107 H    0.965
    98   6 C    3.913 --    96 C    1.495    99 C    1.269   108 H    0.966
    99   6 C    3.956 --   100 O    1.326    97 C    1.270    98 C    1.269
   100   8 O    1.523 --    99 C    1.326
   101   1 H    0.971 --    89 N    0.936
   102   1 H    0.996 --    90 C    0.955
   103   1 H    0.996 --    93 C    0.970
   104   1 H    0.996 --    93 C    0.970
   105   1 H    1.000 --    95 C    0.968
   106   1 H    1.000 --    96 C    0.969
   107   1 H    0.997 --    97 C    0.965
   108   1 H    0.997 --    98 C    0.966
   109   6 C    3.967 --   119 C    0.998   110 S    0.982   137 H    0.956
                           136 H    0.952
   110  16 S    3.129 --   118 C    0.992   109 C    0.982   111 C    0.958
   111   6 C    3.955 --   112 C    1.011   139 H    0.964   110 S    0.958
                           138 H    0.951
   112   6 C    3.985 --   111 C    1.011   113 C    0.999   141 H    0.971
                           140 H    0.960
   113   6 C    3.870 --   112 C    0.999   142 H    0.961   117 N    0.913
                           114 C    0.859
   114   6 C    3.953 --   116 O    1.609   115 O    1.458   113 C    0.859
   115   8 O    1.848 --   114 C    1.458   116 O    0.244
   116   8 O    1.947 --   114 C    1.609   115 O    0.244
   117   7 N    3.651 --   143 H    0.915   113 C    0.913   145 H    0.902
                           144 H    0.849
   118   6 C    3.917 --   110 S    0.992   147 H    0.964   148 H    0.963
                           146 H    0.952
   119   6 C    3.939 --   109 C    0.998   123 C    0.965   149 H    0.956
                           120 O    0.944
   120   8 O    2.077 --   119 C    0.944   121 C    0.943
   121   6 C    3.925 --   126 N    0.983   150 H    0.954   120 O    0.943
                           122 C    0.939
   122   6 C    3.959 --   125 O    1.022   123 C    0.971   121 C    0.939
                           151 H    0.919
   123   6 C    3.963 --   124 O    1.001   122 C    0.971   119 C    0.965
                           152 H    0.951
   124   8 O    1.929 --   123 C    1.001   153 H    0.829
   125   8 O    1.944 --   122 C    1.022   154 H    0.815
   126   7 N    3.620 --   127 C    1.222   135 C    1.156   121 C    0.983
                           128 N    0.103
   127   6 C    3.953 --   128 N    1.580   126 N    1.222   155 H    0.961
   128   7 N    3.003 --   127 C    1.580   129 C    1.203   126 N    0.103
   129   6 C    3.975 --   135 C    1.277   130 C    1.249   128 N    1.203
   130   6 C    3.971 --   132 N    1.340   129 C    1.249   131 N    1.214
   131   7 N    3.302 --   130 C    1.214   157 H    0.950   156 H    0.905
   132   7 N    3.034 --   133 C    1.394   130 C    1.340
   133   6 C    3.965 --   134 N    1.455   132 N    1.394   158 H    0.958
   134   7 N    3.034 --   133 C    1.455   135 C    1.302
   135   6 C    3.956 --   134 N    1.302   129 C    1.277   126 N    1.156
   136   1 H    0.992 --   109 C    0.952
   137   1 H    0.987 --   109 C    0.956
   138   1 H    0.981 --   111 C    0.951
   139   1 H    0.997 --   111 C    0.964
   140   1 H    0.989 --   112 C    0.960
   141   1 H    0.996 --   112 C    0.971
   142   1 H    0.995 --   113 C    0.961
   143   1 H    0.931 --   117 N    0.915
   144   1 H    0.916 --   117 N    0.849
   145   1 H    0.933 --   117 N    0.902
   146   1 H    0.979 --   118 C    0.952
   147   1 H    0.987 --   118 C    0.964
   148   1 H    0.984 --   118 C    0.963
   149   1 H    0.998 --   119 C    0.956
   150   1 H    0.996 --   121 C    0.954
   151   1 H    0.992 --   122 C    0.919
   152   1 H    0.994 --   123 C    0.951
   153   1 H    0.887 --   124 O    0.829
   154   1 H    0.879 --   125 O    0.815
   155   1 H    0.994 --   127 C    0.961
   156   1 H    0.954 --   131 N    0.905
   157   1 H    0.968 --   131 N    0.950
   158   1 H    0.996 --   133 C    0.958
   159   6 C    3.924 --   161 O    1.524   160 O    1.477   162 C    0.905
   160   8 O    1.809 --   159 C    1.477   161 O    0.213
   161   8 O    1.800 --   159 C    1.524   160 O    0.213
   162   6 C    3.906 --   165 H    0.982   164 H    0.978   163 H    0.971
                           159 C    0.905
   163   1 H    0.997 --   162 C    0.971
   164   1 H    0.996 --   162 C    0.978
   165   1 H    0.996 --   162 C    0.982
   166   6 C    3.960 --   167 O    1.629     1 N    1.255   168 C    1.030
   167   8 O    1.938 --   166 C    1.629     1 N    0.191
   168   6 C    3.996 --   166 C    1.030   171 H    0.980   170 H    0.965
                           169 H    0.951
   169   1 H    0.992 --   168 C    0.951
   170   1 H    0.995 --   168 C    0.965
   171   1 H    0.999 --   168 C    0.980
   172   6 C    3.961 --   173 O    1.649    21 N    1.243   174 C    1.028
   173   8 O    1.959 --   172 C    1.649    21 N    0.191
   174   6 C    3.996 --   172 C    1.028   176 H    0.977   177 H    0.969
                           175 H    0.952
   175   1 H    0.994 --   174 C    0.952
   176   1 H    0.999 --   174 C    0.977
   177   1 H    0.995 --   174 C    0.969
   178   6 C    3.963 --   179 O    1.593    31 N    1.304   180 C    1.022
   179   8 O    1.912 --   178 C    1.593    31 N    0.199
   180   6 C    3.997 --   178 C    1.022   182 H    0.980   181 H    0.969
                           183 H    0.961
   181   1 H    0.998 --   180 C    0.969
   182   1 H    0.996 --   180 C    0.980
   183   1 H    0.997 --   180 C    0.961
   184   6 C    3.959 --   185 O    1.638    43 N    1.247   186 C    1.032
   185   8 O    1.949 --   184 C    1.638    43 N    0.190
   186   6 C    3.995 --   184 C    1.032   189 H    0.979   187 H    0.956
                           188 H    0.955
   187   1 H    0.992 --   186 C    0.956
   188   1 H    0.993 --   186 C    0.955
   189   1 H    0.999 --   186 C    0.979
   190   6 C    3.961 --   191 O    1.630    57 N    1.259   192 C    1.026
   191   8 O    1.940 --   190 C    1.630    57 N    0.194
   192   6 C    3.997 --   190 C    1.026   194 H    0.977   195 H    0.969
                           193 H    0.952
   193   1 H    0.993 --   192 C    0.952
   194   1 H    0.999 --   192 C    0.977
   195   1 H    0.995 --   192 C    0.969
   196   6 C    3.959 --   197 O    1.638    89 N    1.251   198 C    1.027
   197   8 O    1.948 --   196 C    1.638    89 N    0.192
   198   6 C    3.996 --   196 C    1.027   200 H    0.979   199 H    0.960
                           201 H    0.956
   199   1 H    0.995 --   198 C    0.960
   200   1 H    0.999 --   198 C    0.979
   201   1 H    0.992 --   198 C    0.956
   202   7 N    3.452 --     3 C    1.268   204 C    1.015   203 H    0.932
                             4 O    0.188
   203   1 H    0.972 --   202 N    0.932
   204   6 C    3.972 --   202 N    1.015   207 H    0.986   206 H    0.973
                           205 H    0.972
   205   1 H    0.996 --   204 C    0.972
   206   1 H    0.996 --   204 C    0.973
   207   1 H    0.998 --   204 C    0.986
   208   7 N    3.505 --    23 C    1.324   210 C    1.019   209 H    0.918
                            24 O    0.199
   209   1 H    0.957 --   208 N    0.918
   210   6 C    3.967 --   208 N    1.019   211 H    0.978   212 H    0.974
                           213 H    0.967
   211   1 H    0.998 --   210 C    0.978
   212   1 H    0.994 --   210 C    0.974
   213   1 H    0.995 --   210 C    0.967
   214   7 N    3.510 --    33 C    1.325   216 C    1.023   215 H    0.918
                            34 O    0.198
   215   1 H    0.959 --   214 N    0.918
   216   6 C    3.972 --   214 N    1.023   218 H    0.975   219 H    0.973
                           217 H    0.972
   217   1 H    0.994 --   216 C    0.972
   218   1 H    0.998 --   216 C    0.975
   219   1 H    0.999 --   216 C    0.973
   220   7 N    3.502 --    45 C    1.315   222 C    1.018   221 H    0.912
                            46 O    0.210
   221   1 H    0.957 --   220 N    0.912
   222   6 C    3.968 --   220 N    1.018   225 H    0.982   223 H    0.974
                           224 H    0.968
   223   1 H    0.995 --   222 C    0.974
   224   1 H    0.996 --   222 C    0.968
   225   1 H    0.997 --   222 C    0.982
   226   7 N    3.459 --    80 C    1.266   228 C    1.014   227 H    0.941
                            81 O    0.199
   227   1 H    0.974 --   226 N    0.941
   228   6 C    3.966 --   226 N    1.014   231 H    0.984   230 H    0.971
                           229 H    0.971
   229   1 H    0.997 --   228 C    0.971
   230   1 H    0.993 --   228 C    0.971
   231   1 H    0.998 --   228 C    0.984
   232   7 N    3.453 --    91 C    1.264   234 C    1.015   233 H    0.938
                            92 O    0.195
   233   1 H    0.970 --   232 N    0.938
   234   6 C    3.971 --   232 N    1.015   235 H    0.985   236 H    0.973
                           237 H    0.971
   235   1 H    0.998 --   234 C    0.985
   236   1 H    0.995 --   234 C    0.973
   237   1 H    0.997 --   234 C    0.971
 ---------------------------------------------------------------------------

Topologies differ in bond orders
Writing corrected topology to xtbtopo.mol

molecular dipole:
                 x           y           z       tot (Debye)
 q only:     -146.249    -372.356    -437.909
   full:     -146.745    -372.490    -439.546    1511.183
molecular quadrupole (traceless):
                xx          xy          yy          xz          yz          zz
 q only:    71971.348  -40854.626  -16097.997  -47959.393 -122103.615  -55873.351
  q+dip:    72249.528  -40976.893  -15740.693  -48280.187 -122609.430  -56508.836
   full:    72248.358  -40975.079  -15741.231  -48278.377 -122606.728  -56507.127


           -------------------------------------------------
          | TOTAL ENERGY             -395.811736391522 Eh   |
          | GRADIENT NORM               0.440615653173 Eh/α |
          | HOMO-LUMO GAP               0.672380649001 eV   |
           -------------------------------------------------

------------------------------------------------------------------------
 * finished run on 2024/03/04 at 03:17:47.220     
------------------------------------------------------------------------
 total:
 * wall-time:     0 d,  0 h,  0 min,  8.021 sec
 *  cpu-time:     0 d,  0 h,  0 min,  7.970 sec
 * ratio c/w:     0.994 speedup
 SCF:
 * wall-time:     0 d,  0 h,  0 min,  7.727 sec
 *  cpu-time:     0 d,  0 h,  0 min,  7.708 sec
 * ratio c/w:     0.998 speedup

